# vtk DataFile Version 2.0
files//coalStoveUnsteady_3D_300.vtk
ASCII
DATASET UNSTRUCTURED_GRID
POINTS 6000 double
0 0 0 
0 0 0.1 
0 0 0.2 
0 0 0.3 
0 0 0.4 
0 0 0.5 
0 0 0.6 
0 0 0.7 
0 0 0.8 
0 0 0.9 
0 0 1 
0 0 1.1 
0 0 1.2 
0 0 1.3 
0 0 1.4 
0 0 1.5 
0 0 1.6 
0 0 1.7 
0 0 1.8 
0 0 1.9 
0 0 2 
0 0 2.1 
0 0 2.2 
0 0 2.3 
0 0 2.4 
0 0 2.5 
0 0 2.6 
0 0 2.7 
0 0 2.8 
0 0 2.9 
0 0 3 
0 0 3.1 
0 0 3.2 
0 0 3.3 
0 0 3.4 
0 0 3.5 
0 0 3.6 
0 0 3.7 
0 0 3.8 
0 0 3.9 
0 0 4 
0 0 4.1 
0 0 4.2 
0 0 4.3 
0 0 4.4 
0 0 4.5 
0 0 4.6 
0 0 4.7 
0 0 4.8 
0 0 4.9 
0 0 5 
0 0 5.1 
0 0 5.2 
0 0 5.3 
0 0 5.4 
0 0 5.5 
0 0 5.6 
0 0 5.7 
0 0 5.8 
0 0 5.9 
0 0.1 0 
0 0.1 0.1 
0 0.1 0.2 
0 0.1 0.3 
0 0.1 0.4 
0 0.1 0.5 
0 0.1 0.6 
0 0.1 0.7 
0 0.1 0.8 
0 0.1 0.9 
0 0.1 1 
0 0.1 1.1 
0 0.1 1.2 
0 0.1 1.3 
0 0.1 1.4 
0 0.1 1.5 
0 0.1 1.6 
0 0.1 1.7 
0 0.1 1.8 
0 0.1 1.9 
0 0.1 2 
0 0.1 2.1 
0 0.1 2.2 
0 0.1 2.3 
0 0.1 2.4 
0 0.1 2.5 
0 0.1 2.6 
0 0.1 2.7 
0 0.1 2.8 
0 0.1 2.9 
0 0.1 3 
0 0.1 3.1 
0 0.1 3.2 
0 0.1 3.3 
0 0.1 3.4 
0 0.1 3.5 
0 0.1 3.6 
0 0.1 3.7 
0 0.1 3.8 
0 0.1 3.9 
0 0.1 4 
0 0.1 4.1 
0 0.1 4.2 
0 0.1 4.3 
0 0.1 4.4 
0 0.1 4.5 
0 0.1 4.6 
0 0.1 4.7 
0 0.1 4.8 
0 0.1 4.9 
0 0.1 5 
0 0.1 5.1 
0 0.1 5.2 
0 0.1 5.3 
0 0.1 5.4 
0 0.1 5.5 
0 0.1 5.6 
0 0.1 5.7 
0 0.1 5.8 
0 0.1 5.9 
0 0.2 0 
0 0.2 0.1 
0 0.2 0.2 
0 0.2 0.3 
0 0.2 0.4 
0 0.2 0.5 
0 0.2 0.6 
0 0.2 0.7 
0 0.2 0.8 
0 0.2 0.9 
0 0.2 1 
0 0.2 1.1 
0 0.2 1.2 
0 0.2 1.3 
0 0.2 1.4 
0 0.2 1.5 
0 0.2 1.6 
0 0.2 1.7 
0 0.2 1.8 
0 0.2 1.9 
0 0.2 2 
0 0.2 2.1 
0 0.2 2.2 
0 0.2 2.3 
0 0.2 2.4 
0 0.2 2.5 
0 0.2 2.6 
0 0.2 2.7 
0 0.2 2.8 
0 0.2 2.9 
0 0.2 3 
0 0.2 3.1 
0 0.2 3.2 
0 0.2 3.3 
0 0.2 3.4 
0 0.2 3.5 
0 0.2 3.6 
0 0.2 3.7 
0 0.2 3.8 
0 0.2 3.9 
0 0.2 4 
0 0.2 4.1 
0 0.2 4.2 
0 0.2 4.3 
0 0.2 4.4 
0 0.2 4.5 
0 0.2 4.6 
0 0.2 4.7 
0 0.2 4.8 
0 0.2 4.9 
0 0.2 5 
0 0.2 5.1 
0 0.2 5.2 
0 0.2 5.3 
0 0.2 5.4 
0 0.2 5.5 
0 0.2 5.6 
0 0.2 5.7 
0 0.2 5.8 
0 0.2 5.9 
0 0.3 0 
0 0.3 0.1 
0 0.3 0.2 
0 0.3 0.3 
0 0.3 0.4 
0 0.3 0.5 
0 0.3 0.6 
0 0.3 0.7 
0 0.3 0.8 
0 0.3 0.9 
0 0.3 1 
0 0.3 1.1 
0 0.3 1.2 
0 0.3 1.3 
0 0.3 1.4 
0 0.3 1.5 
0 0.3 1.6 
0 0.3 1.7 
0 0.3 1.8 
0 0.3 1.9 
0 0.3 2 
0 0.3 2.1 
0 0.3 2.2 
0 0.3 2.3 
0 0.3 2.4 
0 0.3 2.5 
0 0.3 2.6 
0 0.3 2.7 
0 0.3 2.8 
0 0.3 2.9 
0 0.3 3 
0 0.3 3.1 
0 0.3 3.2 
0 0.3 3.3 
0 0.3 3.4 
0 0.3 3.5 
0 0.3 3.6 
0 0.3 3.7 
0 0.3 3.8 
0 0.3 3.9 
0 0.3 4 
0 0.3 4.1 
0 0.3 4.2 
0 0.3 4.3 
0 0.3 4.4 
0 0.3 4.5 
0 0.3 4.6 
0 0.3 4.7 
0 0.3 4.8 
0 0.3 4.9 
0 0.3 5 
0 0.3 5.1 
0 0.3 5.2 
0 0.3 5.3 
0 0.3 5.4 
0 0.3 5.5 
0 0.3 5.6 
0 0.3 5.7 
0 0.3 5.8 
0 0.3 5.9 
0 0.4 0 
0 0.4 0.1 
0 0.4 0.2 
0 0.4 0.3 
0 0.4 0.4 
0 0.4 0.5 
0 0.4 0.6 
0 0.4 0.7 
0 0.4 0.8 
0 0.4 0.9 
0 0.4 1 
0 0.4 1.1 
0 0.4 1.2 
0 0.4 1.3 
0 0.4 1.4 
0 0.4 1.5 
0 0.4 1.6 
0 0.4 1.7 
0 0.4 1.8 
0 0.4 1.9 
0 0.4 2 
0 0.4 2.1 
0 0.4 2.2 
0 0.4 2.3 
0 0.4 2.4 
0 0.4 2.5 
0 0.4 2.6 
0 0.4 2.7 
0 0.4 2.8 
0 0.4 2.9 
0 0.4 3 
0 0.4 3.1 
0 0.4 3.2 
0 0.4 3.3 
0 0.4 3.4 
0 0.4 3.5 
0 0.4 3.6 
0 0.4 3.7 
0 0.4 3.8 
0 0.4 3.9 
0 0.4 4 
0 0.4 4.1 
0 0.4 4.2 
0 0.4 4.3 
0 0.4 4.4 
0 0.4 4.5 
0 0.4 4.6 
0 0.4 4.7 
0 0.4 4.8 
0 0.4 4.9 
0 0.4 5 
0 0.4 5.1 
0 0.4 5.2 
0 0.4 5.3 
0 0.4 5.4 
0 0.4 5.5 
0 0.4 5.6 
0 0.4 5.7 
0 0.4 5.8 
0 0.4 5.9 
0 0.5 0 
0 0.5 0.1 
0 0.5 0.2 
0 0.5 0.3 
0 0.5 0.4 
0 0.5 0.5 
0 0.5 0.6 
0 0.5 0.7 
0 0.5 0.8 
0 0.5 0.9 
0 0.5 1 
0 0.5 1.1 
0 0.5 1.2 
0 0.5 1.3 
0 0.5 1.4 
0 0.5 1.5 
0 0.5 1.6 
0 0.5 1.7 
0 0.5 1.8 
0 0.5 1.9 
0 0.5 2 
0 0.5 2.1 
0 0.5 2.2 
0 0.5 2.3 
0 0.5 2.4 
0 0.5 2.5 
0 0.5 2.6 
0 0.5 2.7 
0 0.5 2.8 
0 0.5 2.9 
0 0.5 3 
0 0.5 3.1 
0 0.5 3.2 
0 0.5 3.3 
0 0.5 3.4 
0 0.5 3.5 
0 0.5 3.6 
0 0.5 3.7 
0 0.5 3.8 
0 0.5 3.9 
0 0.5 4 
0 0.5 4.1 
0 0.5 4.2 
0 0.5 4.3 
0 0.5 4.4 
0 0.5 4.5 
0 0.5 4.6 
0 0.5 4.7 
0 0.5 4.8 
0 0.5 4.9 
0 0.5 5 
0 0.5 5.1 
0 0.5 5.2 
0 0.5 5.3 
0 0.5 5.4 
0 0.5 5.5 
0 0.5 5.6 
0 0.5 5.7 
0 0.5 5.8 
0 0.5 5.9 
0 0.6 0 
0 0.6 0.1 
0 0.6 0.2 
0 0.6 0.3 
0 0.6 0.4 
0 0.6 0.5 
0 0.6 0.6 
0 0.6 0.7 
0 0.6 0.8 
0 0.6 0.9 
0 0.6 1 
0 0.6 1.1 
0 0.6 1.2 
0 0.6 1.3 
0 0.6 1.4 
0 0.6 1.5 
0 0.6 1.6 
0 0.6 1.7 
0 0.6 1.8 
0 0.6 1.9 
0 0.6 2 
0 0.6 2.1 
0 0.6 2.2 
0 0.6 2.3 
0 0.6 2.4 
0 0.6 2.5 
0 0.6 2.6 
0 0.6 2.7 
0 0.6 2.8 
0 0.6 2.9 
0 0.6 3 
0 0.6 3.1 
0 0.6 3.2 
0 0.6 3.3 
0 0.6 3.4 
0 0.6 3.5 
0 0.6 3.6 
0 0.6 3.7 
0 0.6 3.8 
0 0.6 3.9 
0 0.6 4 
0 0.6 4.1 
0 0.6 4.2 
0 0.6 4.3 
0 0.6 4.4 
0 0.6 4.5 
0 0.6 4.6 
0 0.6 4.7 
0 0.6 4.8 
0 0.6 4.9 
0 0.6 5 
0 0.6 5.1 
0 0.6 5.2 
0 0.6 5.3 
0 0.6 5.4 
0 0.6 5.5 
0 0.6 5.6 
0 0.6 5.7 
0 0.6 5.8 
0 0.6 5.9 
0 0.7 0 
0 0.7 0.1 
0 0.7 0.2 
0 0.7 0.3 
0 0.7 0.4 
0 0.7 0.5 
0 0.7 0.6 
0 0.7 0.7 
0 0.7 0.8 
0 0.7 0.9 
0 0.7 1 
0 0.7 1.1 
0 0.7 1.2 
0 0.7 1.3 
0 0.7 1.4 
0 0.7 1.5 
0 0.7 1.6 
0 0.7 1.7 
0 0.7 1.8 
0 0.7 1.9 
0 0.7 2 
0 0.7 2.1 
0 0.7 2.2 
0 0.7 2.3 
0 0.7 2.4 
0 0.7 2.5 
0 0.7 2.6 
0 0.7 2.7 
0 0.7 2.8 
0 0.7 2.9 
0 0.7 3 
0 0.7 3.1 
0 0.7 3.2 
0 0.7 3.3 
0 0.7 3.4 
0 0.7 3.5 
0 0.7 3.6 
0 0.7 3.7 
0 0.7 3.8 
0 0.7 3.9 
0 0.7 4 
0 0.7 4.1 
0 0.7 4.2 
0 0.7 4.3 
0 0.7 4.4 
0 0.7 4.5 
0 0.7 4.6 
0 0.7 4.7 
0 0.7 4.8 
0 0.7 4.9 
0 0.7 5 
0 0.7 5.1 
0 0.7 5.2 
0 0.7 5.3 
0 0.7 5.4 
0 0.7 5.5 
0 0.7 5.6 
0 0.7 5.7 
0 0.7 5.8 
0 0.7 5.9 
0 0.8 0 
0 0.8 0.1 
0 0.8 0.2 
0 0.8 0.3 
0 0.8 0.4 
0 0.8 0.5 
0 0.8 0.6 
0 0.8 0.7 
0 0.8 0.8 
0 0.8 0.9 
0 0.8 1 
0 0.8 1.1 
0 0.8 1.2 
0 0.8 1.3 
0 0.8 1.4 
0 0.8 1.5 
0 0.8 1.6 
0 0.8 1.7 
0 0.8 1.8 
0 0.8 1.9 
0 0.8 2 
0 0.8 2.1 
0 0.8 2.2 
0 0.8 2.3 
0 0.8 2.4 
0 0.8 2.5 
0 0.8 2.6 
0 0.8 2.7 
0 0.8 2.8 
0 0.8 2.9 
0 0.8 3 
0 0.8 3.1 
0 0.8 3.2 
0 0.8 3.3 
0 0.8 3.4 
0 0.8 3.5 
0 0.8 3.6 
0 0.8 3.7 
0 0.8 3.8 
0 0.8 3.9 
0 0.8 4 
0 0.8 4.1 
0 0.8 4.2 
0 0.8 4.3 
0 0.8 4.4 
0 0.8 4.5 
0 0.8 4.6 
0 0.8 4.7 
0 0.8 4.8 
0 0.8 4.9 
0 0.8 5 
0 0.8 5.1 
0 0.8 5.2 
0 0.8 5.3 
0 0.8 5.4 
0 0.8 5.5 
0 0.8 5.6 
0 0.8 5.7 
0 0.8 5.8 
0 0.8 5.9 
0 0.9 0 
0 0.9 0.1 
0 0.9 0.2 
0 0.9 0.3 
0 0.9 0.4 
0 0.9 0.5 
0 0.9 0.6 
0 0.9 0.7 
0 0.9 0.8 
0 0.9 0.9 
0 0.9 1 
0 0.9 1.1 
0 0.9 1.2 
0 0.9 1.3 
0 0.9 1.4 
0 0.9 1.5 
0 0.9 1.6 
0 0.9 1.7 
0 0.9 1.8 
0 0.9 1.9 
0 0.9 2 
0 0.9 2.1 
0 0.9 2.2 
0 0.9 2.3 
0 0.9 2.4 
0 0.9 2.5 
0 0.9 2.6 
0 0.9 2.7 
0 0.9 2.8 
0 0.9 2.9 
0 0.9 3 
0 0.9 3.1 
0 0.9 3.2 
0 0.9 3.3 
0 0.9 3.4 
0 0.9 3.5 
0 0.9 3.6 
0 0.9 3.7 
0 0.9 3.8 
0 0.9 3.9 
0 0.9 4 
0 0.9 4.1 
0 0.9 4.2 
0 0.9 4.3 
0 0.9 4.4 
0 0.9 4.5 
0 0.9 4.6 
0 0.9 4.7 
0 0.9 4.8 
0 0.9 4.9 
0 0.9 5 
0 0.9 5.1 
0 0.9 5.2 
0 0.9 5.3 
0 0.9 5.4 
0 0.9 5.5 
0 0.9 5.6 
0 0.9 5.7 
0 0.9 5.8 
0 0.9 5.9 
0.1 0 0 
0.1 0 0.1 
0.1 0 0.2 
0.1 0 0.3 
0.1 0 0.4 
0.1 0 0.5 
0.1 0 0.6 
0.1 0 0.7 
0.1 0 0.8 
0.1 0 0.9 
0.1 0 1 
0.1 0 1.1 
0.1 0 1.2 
0.1 0 1.3 
0.1 0 1.4 
0.1 0 1.5 
0.1 0 1.6 
0.1 0 1.7 
0.1 0 1.8 
0.1 0 1.9 
0.1 0 2 
0.1 0 2.1 
0.1 0 2.2 
0.1 0 2.3 
0.1 0 2.4 
0.1 0 2.5 
0.1 0 2.6 
0.1 0 2.7 
0.1 0 2.8 
0.1 0 2.9 
0.1 0 3 
0.1 0 3.1 
0.1 0 3.2 
0.1 0 3.3 
0.1 0 3.4 
0.1 0 3.5 
0.1 0 3.6 
0.1 0 3.7 
0.1 0 3.8 
0.1 0 3.9 
0.1 0 4 
0.1 0 4.1 
0.1 0 4.2 
0.1 0 4.3 
0.1 0 4.4 
0.1 0 4.5 
0.1 0 4.6 
0.1 0 4.7 
0.1 0 4.8 
0.1 0 4.9 
0.1 0 5 
0.1 0 5.1 
0.1 0 5.2 
0.1 0 5.3 
0.1 0 5.4 
0.1 0 5.5 
0.1 0 5.6 
0.1 0 5.7 
0.1 0 5.8 
0.1 0 5.9 
0.1 0.1 0 
0.1 0.1 0.1 
0.1 0.1 0.2 
0.1 0.1 0.3 
0.1 0.1 0.4 
0.1 0.1 0.5 
0.1 0.1 0.6 
0.1 0.1 0.7 
0.1 0.1 0.8 
0.1 0.1 0.9 
0.1 0.1 1 
0.1 0.1 1.1 
0.1 0.1 1.2 
0.1 0.1 1.3 
0.1 0.1 1.4 
0.1 0.1 1.5 
0.1 0.1 1.6 
0.1 0.1 1.7 
0.1 0.1 1.8 
0.1 0.1 1.9 
0.1 0.1 2 
0.1 0.1 2.1 
0.1 0.1 2.2 
0.1 0.1 2.3 
0.1 0.1 2.4 
0.1 0.1 2.5 
0.1 0.1 2.6 
0.1 0.1 2.7 
0.1 0.1 2.8 
0.1 0.1 2.9 
0.1 0.1 3 
0.1 0.1 3.1 
0.1 0.1 3.2 
0.1 0.1 3.3 
0.1 0.1 3.4 
0.1 0.1 3.5 
0.1 0.1 3.6 
0.1 0.1 3.7 
0.1 0.1 3.8 
0.1 0.1 3.9 
0.1 0.1 4 
0.1 0.1 4.1 
0.1 0.1 4.2 
0.1 0.1 4.3 
0.1 0.1 4.4 
0.1 0.1 4.5 
0.1 0.1 4.6 
0.1 0.1 4.7 
0.1 0.1 4.8 
0.1 0.1 4.9 
0.1 0.1 5 
0.1 0.1 5.1 
0.1 0.1 5.2 
0.1 0.1 5.3 
0.1 0.1 5.4 
0.1 0.1 5.5 
0.1 0.1 5.6 
0.1 0.1 5.7 
0.1 0.1 5.8 
0.1 0.1 5.9 
0.1 0.2 0 
0.1 0.2 0.1 
0.1 0.2 0.2 
0.1 0.2 0.3 
0.1 0.2 0.4 
0.1 0.2 0.5 
0.1 0.2 0.6 
0.1 0.2 0.7 
0.1 0.2 0.8 
0.1 0.2 0.9 
0.1 0.2 1 
0.1 0.2 1.1 
0.1 0.2 1.2 
0.1 0.2 1.3 
0.1 0.2 1.4 
0.1 0.2 1.5 
0.1 0.2 1.6 
0.1 0.2 1.7 
0.1 0.2 1.8 
0.1 0.2 1.9 
0.1 0.2 2 
0.1 0.2 2.1 
0.1 0.2 2.2 
0.1 0.2 2.3 
0.1 0.2 2.4 
0.1 0.2 2.5 
0.1 0.2 2.6 
0.1 0.2 2.7 
0.1 0.2 2.8 
0.1 0.2 2.9 
0.1 0.2 3 
0.1 0.2 3.1 
0.1 0.2 3.2 
0.1 0.2 3.3 
0.1 0.2 3.4 
0.1 0.2 3.5 
0.1 0.2 3.6 
0.1 0.2 3.7 
0.1 0.2 3.8 
0.1 0.2 3.9 
0.1 0.2 4 
0.1 0.2 4.1 
0.1 0.2 4.2 
0.1 0.2 4.3 
0.1 0.2 4.4 
0.1 0.2 4.5 
0.1 0.2 4.6 
0.1 0.2 4.7 
0.1 0.2 4.8 
0.1 0.2 4.9 
0.1 0.2 5 
0.1 0.2 5.1 
0.1 0.2 5.2 
0.1 0.2 5.3 
0.1 0.2 5.4 
0.1 0.2 5.5 
0.1 0.2 5.6 
0.1 0.2 5.7 
0.1 0.2 5.8 
0.1 0.2 5.9 
0.1 0.3 0 
0.1 0.3 0.1 
0.1 0.3 0.2 
0.1 0.3 0.3 
0.1 0.3 0.4 
0.1 0.3 0.5 
0.1 0.3 0.6 
0.1 0.3 0.7 
0.1 0.3 0.8 
0.1 0.3 0.9 
0.1 0.3 1 
0.1 0.3 1.1 
0.1 0.3 1.2 
0.1 0.3 1.3 
0.1 0.3 1.4 
0.1 0.3 1.5 
0.1 0.3 1.6 
0.1 0.3 1.7 
0.1 0.3 1.8 
0.1 0.3 1.9 
0.1 0.3 2 
0.1 0.3 2.1 
0.1 0.3 2.2 
0.1 0.3 2.3 
0.1 0.3 2.4 
0.1 0.3 2.5 
0.1 0.3 2.6 
0.1 0.3 2.7 
0.1 0.3 2.8 
0.1 0.3 2.9 
0.1 0.3 3 
0.1 0.3 3.1 
0.1 0.3 3.2 
0.1 0.3 3.3 
0.1 0.3 3.4 
0.1 0.3 3.5 
0.1 0.3 3.6 
0.1 0.3 3.7 
0.1 0.3 3.8 
0.1 0.3 3.9 
0.1 0.3 4 
0.1 0.3 4.1 
0.1 0.3 4.2 
0.1 0.3 4.3 
0.1 0.3 4.4 
0.1 0.3 4.5 
0.1 0.3 4.6 
0.1 0.3 4.7 
0.1 0.3 4.8 
0.1 0.3 4.9 
0.1 0.3 5 
0.1 0.3 5.1 
0.1 0.3 5.2 
0.1 0.3 5.3 
0.1 0.3 5.4 
0.1 0.3 5.5 
0.1 0.3 5.6 
0.1 0.3 5.7 
0.1 0.3 5.8 
0.1 0.3 5.9 
0.1 0.4 0 
0.1 0.4 0.1 
0.1 0.4 0.2 
0.1 0.4 0.3 
0.1 0.4 0.4 
0.1 0.4 0.5 
0.1 0.4 0.6 
0.1 0.4 0.7 
0.1 0.4 0.8 
0.1 0.4 0.9 
0.1 0.4 1 
0.1 0.4 1.1 
0.1 0.4 1.2 
0.1 0.4 1.3 
0.1 0.4 1.4 
0.1 0.4 1.5 
0.1 0.4 1.6 
0.1 0.4 1.7 
0.1 0.4 1.8 
0.1 0.4 1.9 
0.1 0.4 2 
0.1 0.4 2.1 
0.1 0.4 2.2 
0.1 0.4 2.3 
0.1 0.4 2.4 
0.1 0.4 2.5 
0.1 0.4 2.6 
0.1 0.4 2.7 
0.1 0.4 2.8 
0.1 0.4 2.9 
0.1 0.4 3 
0.1 0.4 3.1 
0.1 0.4 3.2 
0.1 0.4 3.3 
0.1 0.4 3.4 
0.1 0.4 3.5 
0.1 0.4 3.6 
0.1 0.4 3.7 
0.1 0.4 3.8 
0.1 0.4 3.9 
0.1 0.4 4 
0.1 0.4 4.1 
0.1 0.4 4.2 
0.1 0.4 4.3 
[...]
POINT_DATA 6000
SCALARS cell double
LOOKUP_TABLE default
0.934679 0.869797 0.805785 0.743053 0.68199 0.622951 0.56625 0.512161 0.460908 0.412668 0.367568 0.325684 0.287046 0.251641 0.219414 0.190273 0.164099 0.140744 0.120043 0.101815 0.0858707 0.0720146 0.0600525 0.0497928 0.0410507 0.03365 0.0274256 0.0222243 0.0179059 0.0143436 0.0114239 0.00904602 0.00712184 0.00557464 0.00433842 0.0033569 0.00258249 0.00197531 0.00150221 0.00113588 0.000853959 0.000638344 0.000474449 0.000350627 0.00025765 0.000188256 0.000136776 9.88156e-05 7.09914e-05 5.07192e-05 3.60383e-05 2.54716e-05 1.79144e-05 1.25471e-05 8.76606e-06 6.13143e-06 4.32672e-06 3.12873e-06 2.38547e-06 2.00075e-06 
0.934747 0.869931 0.805982 0.74331 0.682302 0.623311 0.566652 0.512597 0.461372 0.413152 0.368063 0.326184 0.287544 0.252131 0.219889 0.19073 0.164534 0.141153 0.120425 0.102168 0.086193 0.0723069 0.0603153 0.0500272 0.0412579 0.0338318 0.0275838 0.0223608 0.0180229 0.014443 0.0115078 0.00911628 0.00718025 0.00562284 0.00437791 0.00338903 0.00260844 0.00199613 0.0015188 0.001149 0.000864268 0.00064639 0.000480686 0.00035543 0.000261324 0.000191049 0.000138885 0.000100397 7.21705e-05 5.15927e-05 3.66814e-05 2.59423e-05 1.82571e-05 1.27955e-05 8.94568e-06 6.26154e-06 4.42189e-06 3.20009e-06 2.44175e-06 2.0491e-06 
0.934782 0.870001 0.806085 0.743445 0.682465 0.623499 0.566863 0.512826 0.461615 0.413405 0.368323 0.326446 0.287805 0.252388 0.220139 0.19097 0.164762 0.141368 0.120625 0.102353 0.0863624 0.0724607 0.0604536 0.0501505 0.041367 0.0339275 0.0276671 0.0224328 0.0180845 0.0144955 0.011552 0.00915337 0.00721109 0.0056483 0.00439879 0.00340602 0.00262218 0.00200715 0.00152758 0.00115595 0.000869733 0.000650657 0.000483996 0.000357981 0.000263276 0.000192533 0.000140006 0.000101239 7.27985e-05 5.20581e-05 3.70243e-05 2.61934e-05 1.84401e-05 1.29282e-05 9.04171e-06 6.33114e-06 4.47283e-06 3.23831e-06 2.47189e-06 2.07498e-06 
0.934798 0.870032 0.806131 0.743504 0.682537 0.623583 0.566956 0.512928 0.461723 0.413517 0.368438 0.326562 0.287921 0.252501 0.22025 0.191077 0.164863 0.141464 0.120714 0.102435 0.0864376 0.0725289 0.060515 0.0502053 0.0414155 0.0339701 0.0277041 0.0224648 0.018112 0.0145188 0.0115717 0.0091699 0.00722484 0.00565966 0.0044081 0.0034136 0.00262831 0.00201208 0.00153151 0.00115906 0.000872181 0.000652569 0.00048548 0.000359125 0.000264153 0.0001932 0.00014051 0.000101618 7.3081e-05 5.22677e-05 3.71788e-05 2.63066e-05 1.85226e-05 1.29881e-05 9.08509e-06 6.36261e-06 4.49588e-06 3.2556e-06 2.48552e-06 2.08668e-06 
0.934803 0.870043 0.806147 0.743525 0.682562 0.623612 0.566989 0.512963 0.46176 0.413557 0.368478 0.326603 0.287962 0.252541 0.220288 0.191114 0.164898 0.141497 0.120745 0.102464 0.086464 0.0725528 0.0605365 0.0502245 0.0414325 0.033985 0.0277171 0.022476 0.0181216 0.014527 0.0115787 0.00917571 0.00722968 0.00566366 0.00441139 0.00341628 0.00263047 0.00201381 0.00153289 0.00116016 0.000873045 0.000653245 0.000486004 0.000359529 0.000264463 0.000193436 0.000140689 0.000101752 7.31813e-05 5.23421e-05 3.72336e-05 2.63469e-05 1.8552e-05 1.30094e-05 9.10054e-06 6.37382e-06 4.50409e-06 3.26176e-06 2.49039e-06 2.09084e-06 
0.934803 0.870043 0.806147 0.743525 0.682562 0.623612 0.566989 0.512963 0.46176 0.413557 0.368478 0.326603 0.287962 0.252541 0.220288 0.191114 0.164898 0.141497 0.120745 0.102464 0.086464 0.0725528 0.0605365 0.0502245 0.0414325 0.033985 0.0277171 0.022476 0.0181216 0.014527 0.0115787 0.00917571 0.00722968 0.00566366 0.00441139 0.00341628 0.00263047 0.00201381 0.00153289 0.00116016 0.000873045 0.000653245 0.000486004 0.000359529 0.000264463 0.000193436 0.000140689 0.000101752 7.31813e-05 5.23421e-05 3.72336e-05 2.63469e-05 1.8552e-05 1.30094e-05 9.10054e-06 6.37382e-06 4.50409e-06 3.26176e-06 2.49039e-06 2.09084e-06 
0.934798 0.870032 0.806131 0.743504 0.682537 0.623583 0.566956 0.512928 0.461723 0.413517 0.368438 0.326562 0.287921 0.252501 0.22025 0.191077 0.164863 0.141464 0.120714 0.102435 0.0864376 0.0725289 0.060515 0.0502053 0.0414155 0.0339701 0.0277041 0.0224648 0.018112 0.0145188 0.0115717 0.0091699 0.00722484 0.00565966 0.0044081 0.0034136 0.00262831 0.00201208 0.00153151 0.00115906 0.000872181 0.000652569 0.00048548 0.000359125 0.000264153 0.0001932 0.00014051 0.000101618 7.3081e-05 5.22677e-05 3.71788e-05 2.63066e-05 1.85226e-05 1.29881e-05 9.08509e-06 6.36261e-06 4.49588e-06 3.2556e-06 2.48552e-06 2.08668e-06 
0.934782 0.870001 0.806085 0.743445 0.682465 0.623499 0.566863 0.512826 0.461615 0.413405 0.368323 0.326446 0.287805 0.252388 0.220139 0.19097 0.164762 0.141368 0.120625 0.102353 0.0863624 0.0724607 0.0604536 0.0501505 0.041367 0.0339275 0.0276671 0.0224328 0.0180845 0.0144955 0.011552 0.00915337 0.00721109 0.0056483 0.00439879 0.00340602 0.00262218 0.00200715 0.00152758 0.00115595 0.000869733 0.000650657 0.000483996 0.000357981 0.000263276 0.000192533 0.000140006 0.000101239 7.27985e-05 5.20581e-05 3.70243e-05 2.61934e-05 1.84401e-05 1.29282e-05 9.04171e-06 6.33114e-06 4.47283e-06 3.23831e-06 2.47189e-06 2.07498e-06 
0.934747 0.869931 0.805982 0.74331 0.682302 0.623311 0.566652 0.512597 0.461372 0.413152 0.368063 0.326184 0.287544 0.252131 0.219889 0.19073 0.164534 0.141153 0.120425 0.102168 0.086193 0.0723069 0.0603153 0.0500272 0.0412579 0.0338318 0.0275838 0.0223608 0.0180229 0.014443 0.0115078 0.00911628 0.00718025 0.00562284 0.00437791 0.00338903 0.00260844 0.00199613 0.0015188 0.001149 0.000864268 0.00064639 0.000480686 0.00035543 0.000261324 0.000191049 0.000138885 0.000100397 7.21705e-05 5.15927e-05 3.66814e-05 2.59423e-05 1.82571e-05 1.27955e-05 8.94568e-06 6.26154e-06 4.42189e-06 3.20009e-06 2.44175e-06 2.0491e-06 
0.934679 0.869797 0.805785 0.743053 0.68199 0.622951 0.56625 0.512161 0.460908 0.412668 0.367568 0.325684 0.287046 0.251641 0.219414 0.190273 0.164099 0.140744 0.120043 0.101815 0.0858707 0.0720146 0.0600525 0.0497928 0.0410507 0.03365 0.0274256 0.0222243 0.0179059 0.0143436 0.0114239 0.00904602 0.00712184 0.00557464 0.00433842 0.0033569 0.00258249 0.00197531 0.00150221 0.00113588 0.000853959 0.000638344 0.000474449 0.000350627 0.00025765 0.000188256 0.000136776 9.88156e-05 7.09914e-05 5.07192e-05 3.60383e-05 2.54716e-05 1.79144e-05 1.25471e-05 8.76606e-06 6.13143e-06 4.32672e-06 3.12873e-06 2.38547e-06 2.00075e-06 


0.934747 0.869931 0.805982 0.74331 0.682302 0.623311 0.566652 0.512597 0.461372 0.413152 0.368063 0.326184 0.287544 0.252131 0.219889 0.19073 0.164534 0.141153 0.120425 0.102168 0.086193 0.0723069 0.0603153 0.0500272 0.0412579 0.0338318 0.0275838 0.0223608 0.0180229 0.014443 0.0115078 0.00911628 0.00718025 0.00562284 0.00437791 0.00338903 0.00260844 0.00199613 0.0015188 0.001149 0.000864268 0.00064639 0.000480686 0.00035543 0.000261324 0.000191049 0.000138885 0.000100397 7.21705e-05 5.15927e-05 3.66814e-05 2.59423e-05 1.82571e-05 1.27955e-05 8.94568e-06 6.26154e-06 4.42189e-06 3.20009e-06 2.44175e-06 2.0491e-06 
0.934814 0.870065 0.806179 0.743566 0.682613 0.62367 0.567053 0.513033 0.461835 0.413634 0.368558 0.326683 0.288042 0.25262 0.220365 0.191187 0.164968 0.141563 0.120806 0.10252 0.0865156 0.0725997 0.0605786 0.050262 0.0414657 0.0340141 0.0277424 0.0224978 0.0181403 0.0145429 0.011592 0.0091869 0.00723898 0.00567133 0.00441766 0.00342138 0.00263459 0.00201711 0.00153552 0.00116223 0.000874674 0.000654515 0.000486988 0.000360286 0.000265041 0.000193875 0.00014102 0.000102 7.33661e-05 5.24789e-05 3.73342e-05 2.64204e-05 1.86055e-05 1.30482e-05 9.12851e-06 6.39407e-06 4.51891e-06 3.2729e-06 2.49921e-06 2.09849e-06 
0.93485 0.870135 0.806282 0.743701 0.682776 0.623859 0.567264 0.513262 0.462078 0.413888 0.368818 0.326946 0.288303 0.252877 0.220615 0.191428 0.165197 0.141778 0.121007 0.102706 0.0866854 0.0727538 0.0607173 0.0503857 0.0415751 0.0341101 0.0278261 0.0225701 0.0182022 0.0145956 0.0116366 0.0092242 0.00727002 0.00569697 0.00443869 0.0034385 0.00264843 0.00202823 0.00154438 0.00116925 0.000880195 0.000658829 0.000490336 0.000362867 0.000267017 0.000195379 0.000142157 0.000102854 7.40033e-05 5.29515e-05 3.76826e-05 2.66758e-05 1.87916e-05 1.31832e-05 9.22634e-06 6.46503e-06 4.57089e-06 3.31192e-06 2.53001e-06 2.12495e-06 
0.934865 0.870166 0.806328 0.74376 0.682848 0.623942 0.567357 0.513364 0.462186 0.414 0.368933 0.327062 0.288419 0.252991 0.220726 0.191534 0.165298 0.141874 0.121096 0.102788 0.0867609 0.0728223 0.0607789 0.0504407 0.0416238 0.0341529 0.0278633 0.0226023 0.0182298 0.0146191 0.0116564 0.00924085 0.00728387 0.00570842 0.00444808 0.00344615 0.00265462 0.0020332 0.00154835 0.0011724 0.00088267 0.000660763 0.000491838 0.000364026 0.000267905 0.000196055 0.000142668 0.000103238 7.42904e-05 5.31645e-05 3.78398e-05 2.6791e-05 1.88757e-05 1.32443e-05 9.27058e-06 6.49714e-06 4.59442e-06 3.3296e-06 2.54396e-06 2.13692e-06 
0.934871 0.870176 0.806344 0.743781 0.682873 0.623971 0.56739 0.513399 0.462224 0.414039 0.368973 0.327103 0.288459 0.253031 0.220764 0.191572 0.165334 0.141907 0.121127 0.102817 0.0867873 0.0728463 0.0608005 0.0504601 0.0416409 0.0341679 0.0278764 0.0226136 0.0182396 0.0146274 0.0116634 0.00924671 0.00728875 0.00571245 0.00445139 0.00344885 0.00265681 0.00203496 0.00154975 0.00117351 0.000883545 0.000661448 0.000492369 0.000364436 0.00026822 0.000196295 0.00014285 0.000103375 7.43923e-05 5.32402e-05 3.78956e-05 2.6832e-05 1.89056e-05 1.3266e-05 9.28634e-06 6.5086e-06 4.60282e-06 3.33591e-06 2.54894e-06 2.14119e-06 
0.934871 0.870176 0.806344 0.743781 0.682873 0.623971 0.56739 0.513399 0.462224 0.414039 0.368973 0.327103 0.288459 0.253031 0.220764 0.191572 0.165334 0.141907 0.121127 0.102817 0.0867873 0.0728463 0.0608005 0.0504601 0.0416409 0.0341679 0.0278764 0.0226136 0.0182396 0.0146274 0.0116634 0.00924671 0.00728875 0.00571245 0.00445139 0.00344885 0.00265681 0.00203496 0.00154975 0.00117351 0.000883545 0.000661448 0.000492369 0.000364436 0.00026822 0.000196295 0.00014285 0.000103375 7.43923e-05 5.32402e-05 3.78956e-05 2.6832e-05 1.89056e-05 1.3266e-05 9.28634e-06 6.5086e-06 4.60282e-06 3.33591e-06 2.54894e-06 2.14119e-06 
0.934865 0.870166 0.806328 0.74376 0.682848 0.623942 0.567357 0.513364 0.462186 0.414 0.368933 0.327062 0.288419 0.252991 0.220726 0.191534 0.165298 0.141874 0.121096 0.102788 0.0867609 0.0728223 0.0607789 0.0504407 0.0416238 0.0341529 0.0278633 0.0226023 0.0182298 0.0146191 0.0116564 0.00924085 0.00728387 0.00570842 0.00444808 0.00344615 0.00265462 0.0020332 0.00154835 0.0011724 0.00088267 0.000660763 0.000491838 0.000364026 0.000267905 0.000196055 0.000142668 0.000103238 7.42904e-05 5.31645e-05 3.78398e-05 2.6791e-05 1.88757e-05 1.32443e-05 9.27058e-06 6.49714e-06 4.59442e-06 3.3296e-06 2.54396e-06 2.13692e-06 
0.93485 0.870135 0.806282 0.743701 0.682776 0.623859 0.567264 0.513262 0.462078 0.413888 0.368818 0.326946 0.288303 0.252877 0.220615 0.191428 0.165197 0.141778 0.121007 0.102706 0.0866854 0.0727538 0.0607173 0.0503857 0.0415751 0.0341101 0.0278261 0.0225701 0.0182022 0.0145956 0.0116366 0.0092242 0.00727002 0.00569697 0.00443869 0.0034385 0.00264843 0.00202823 0.00154438 0.00116925 0.000880195 0.000658829 0.000490336 0.000362867 0.000267017 0.000195379 0.000142157 0.000102854 7.40033e-05 5.29515e-05 3.76826e-05 2.66758e-05 1.87916e-05 1.31832e-05 9.22634e-06 6.46503e-06 4.57089e-06 3.31192e-06 2.53001e-06 2.12495e-06 
0.934814 0.870065 0.806179 0.743566 0.682613 0.62367 0.567053 0.513033 0.461835 0.413634 0.368558 0.326683 0.288042 0.25262 0.220365 0.191187 0.164968 0.141563 0.120806 0.10252 0.0865156 0.0725997 0.0605786 0.050262 0.0414657 0.0340141 0.0277424 0.0224978 0.0181403 0.0145429 0.011592 0.0091869 0.00723898 0.00567133 0.00441766 0.00342138 0.00263459 0.00201711 0.00153552 0.00116223 0.000874674 0.000654515 0.000486988 0.000360286 0.000265041 0.000193875 0.00014102 0.000102 7.33661e-05 5.24789e-05 3.73342e-05 2.64204e-05 1.86055e-05 1.30482e-05 9.12851e-06 6.39407e-06 4.51891e-06 3.2729e-06 2.49921e-06 2.09849e-06 
0.934747 0.869931 0.805982 0.74331 0.682302 0.623311 0.566652 0.512597 0.461372 0.413152 0.368063 0.326184 0.287544 0.252131 0.219889 0.19073 0.164534 0.141153 0.120425 0.102168 0.086193 0.0723069 0.0603153 0.0500272 0.0412579 0.0338318 0.0275838 0.0223608 0.0180229 0.014443 0.0115078 0.00911628 0.00718025 0.00562284 0.00437791 0.00338903 0.00260844 0.00199613 0.0015188 0.001149 0.000864268 0.00064639 0.000480686 0.00035543 0.000261324 0.000191049 0.000138885 0.000100397 7.21705e-05 5.15927e-05 3.66814e-05 2.59423e-05 1.82571e-05 1.27955e-05 8.94568e-06 6.26154e-06 4.42189e-06 3.20009e-06 2.44175e-06 2.0491e-06 


0.934782 0.870001 0.806085 0.743445 0.682465 0.623499 0.566863 0.512826 0.461615 0.413405 0.368323 0.326446 0.287805 0.252388 0.220139 0.19097 0.164762 0.141368 0.120625 0.102353 0.0863624 0.0724607 0.0604536 0.0501505 0.041367 0.0339275 0.0276671 0.0224328 0.0180845 0.0144955 0.011552 0.00915337 0.00721109 0.0056483 0.00439879 0.00340602 0.00262218 0.00200715 0.00152758 0.00115595 0.000869733 0.000650657 0.000483996 0.000357981 0.000263276 0.000192533 0.000140006 0.000101239 7.27985e-05 5.20581e-05 3.70243e-05 2.61934e-05 1.84401e-05 1.29282e-05 9.04171e-06 6.33114e-06 4.47283e-06 3.23831e-06 2.47189e-06 2.07498e-06 
0.93485 0.870135 0.806282 0.743701 0.682776 0.623859 0.567264 0.513262 0.462078 0.413888 0.368818 0.326946 0.288303 0.252877 0.220615 0.191428 0.165197 0.141778 0.121007 0.102706 0.0866854 0.0727538 0.0607173 0.0503857 0.0415751 0.0341101 0.0278261 0.0225701 0.0182022 0.0145956 0.0116366 0.0092242 0.00727002 0.00569697 0.00443869 0.0034385 0.00264843 0.00202823 0.00154438 0.00116925 0.000880195 0.000658829 0.000490336 0.000362867 0.000267017 0.000195379 0.000142157 0.000102854 7.40033e-05 5.29515e-05 3.76826e-05 2.66758e-05 1.87916e-05 1.31832e-05 9.22634e-06 6.46503e-06 4.57089e-06 3.31192e-06 2.53001e-06 2.12495e-06 
0.934885 0.870205 0.806385 0.743835 0.682939 0.624047 0.567474 0.513491 0.462321 0.414141 0.369078 0.327208 0.288565 0.253134 0.220865 0.191668 0.165426 0.141993 0.121208 0.102891 0.0868555 0.0729081 0.0608562 0.0505097 0.0416848 0.0342064 0.0279099 0.0226426 0.0182644 0.0146485 0.0116812 0.00926165 0.00730118 0.00572271 0.0044598 0.0034557 0.00266234 0.0020394 0.00155329 0.00117631 0.000885749 0.000663169 0.000493705 0.000365465 0.000269008 0.000196894 0.000143302 0.000103715 7.46458e-05 5.34282e-05 3.80341e-05 2.69334e-05 1.89795e-05 1.33197e-05 9.32517e-06 6.53675e-06 4.62344e-06 3.35139e-06 2.56117e-06 2.15173e-06 
0.934901 0.870236 0.806431 0.743895 0.683011 0.624131 0.567568 0.513593 0.462429 0.414254 0.369193 0.327325 0.288681 0.253248 0.220976 0.191775 0.165527 0.142089 0.121297 0.102974 0.0869311 0.0729768 0.060918 0.0505648 0.0417336 0.0342493 0.0279473 0.0226749 0.0182921 0.0146721 0.0117011 0.00927836 0.00731509 0.00573421 0.00446924 0.00346339 0.00266857 0.0020444 0.00155729 0.00117947 0.000888239 0.000665116 0.000495217 0.000366632 0.000269902 0.000197575 0.000143818 0.000104102 7.49354e-05 5.36431e-05 3.81927e-05 2.70498e-05 1.90644e-05 1.33814e-05 9.36988e-06 6.56922e-06 4.64724e-06 3.36928e-06 2.57529e-06 2.16385e-06 
0.934906 0.870247 0.806447 0.743916 0.683036 0.62416 0.5676 0.513628 0.462467 0.414293 0.369233 0.327365 0.288721 0.253288 0.221015 0.191812 0.165563 0.142123 0.121329 0.103003 0.0869576 0.0730009 0.0609397 0.0505842 0.0417508 0.0342644 0.0279604 0.0226862 0.0183018 0.0146804 0.0117082 0.00928425 0.00732 0.00573827 0.00447257 0.00346611 0.00267077 0.00204617 0.0015587 0.00118059 0.00088912 0.000665805 0.000495753 0.000367045 0.00027022 0.000197817 0.000144001 0.00010424 7.50382e-05 5.37195e-05 3.82492e-05 2.70912e-05 1.90946e-05 1.34034e-05 9.38583e-06 6.58081e-06 4.65574e-06 3.37567e-06 2.58034e-06 2.16817e-06 
0.934906 0.870247 0.806447 0.743916 0.683036 0.62416 0.5676 0.513628 0.462467 0.414293 0.369233 0.327365 0.288721 0.253288 0.221015 0.191812 0.165563 0.142123 0.121329 0.103003 0.0869576 0.0730009 0.0609397 0.0505842 0.0417508 0.0342644 0.0279604 0.0226862 0.0183018 0.0146804 0.0117082 0.00928425 0.00732 0.00573827 0.00447257 0.00346611 0.00267077 0.00204617 0.0015587 0.00118059 0.00088912 0.000665805 0.000495753 0.000367045 0.00027022 0.000197817 0.000144001 0.00010424 7.50382e-05 5.37195e-05 3.82492e-05 2.70912e-05 1.90946e-05 1.34034e-05 9.38583e-06 6.58081e-06 4.65574e-06 3.37567e-06 2.58034e-06 2.16817e-06 
0.934901 0.870236 0.806431 0.743895 0.683011 0.624131 0.567568 0.513593 0.462429 0.414254 0.369193 0.327325 0.288681 0.253248 0.220976 0.191775 0.165527 0.142089 0.121297 0.102974 0.0869311 0.0729768 0.060918 0.0505648 0.0417336 0.0342493 0.0279473 0.0226749 0.0182921 0.0146721 0.0117011 0.00927836 0.00731509 0.00573421 0.00446924 0.00346339 0.00266857 0.0020444 0.00155729 0.00117947 0.000888239 0.000665116 0.000495217 0.000366632 0.000269902 0.000197575 0.000143818 0.000104102 7.49354e-05 5.36431e-05 3.81927e-05 2.70498e-05 1.90644e-05 1.33814e-05 9.36988e-06 6.56922e-06 4.64724e-06 3.36928e-06 2.57529e-06 2.16385e-06 
0.934885 0.870205 0.806385 0.743835 0.682939 0.624047 0.567474 0.513491 0.462321 0.414141 0.369078 0.327208 0.288565 0.253134 0.220865 0.191668 0.165426 0.141993 0.121208 0.102891 0.0868555 0.0729081 0.0608562 0.0505097 0.0416848 0.0342064 0.0279099 0.0226426 0.0182644 0.0146485 0.0116812 0.00926165 0.00730118 0.00572271 0.0044598 0.0034557 0.00266234 0.0020394 0.00155329 0.00117631 0.000885749 0.000663169 0.000493705 0.000365465 0.000269008 0.000196894 0.000143302 0.000103715 7.46458e-05 5.34282e-05 3.80341e-05 2.69334e-05 1.89795e-05 1.33197e-05 9.32517e-06 6.53675e-06 4.62344e-06 3.35139e-06 2.56117e-06 2.15173e-06 
0.93485 0.870135 0.806282 0.743701 0.682776 0.623859 0.567264 0.513262 0.462078 0.413888 0.368818 0.326946 0.288303 0.252877 0.220615 0.191428 0.165197 0.141778 0.121007 0.102706 0.0866854 0.0727538 0.0607173 0.0503857 0.0415751 0.0341101 0.0278261 0.0225701 0.0182022 0.0145956 0.0116366 0.0092242 0.00727002 0.00569697 0.00443869 0.0034385 0.00264843 0.00202823 0.00154438 0.00116925 0.000880195 0.000658829 0.000490336 0.000362867 0.000267017 0.000195379 0.000142157 0.000102854 7.40033e-05 5.29515e-05 3.76826e-05 2.66758e-05 1.87916e-05 1.31832e-05 9.22634e-06 6.46503e-06 4.57089e-06 3.31192e-06 2.53001e-06 2.12495e-06 
0.934782 0.870001 0.806085 0.743445 0.682465 0.623499 0.566863 0.512826 0.461615 0.413405 0.368323 0.326446 0.287805 0.252388 0.220139 0.19097 0.164762 0.141368 0.120625 0.102353 0.0863624 0.0724607 0.0604536 0.0501505 0.041367 0.0339275 0.0276671 0.0224328 0.0180845 0.0144955 0.011552 0.00915337 0.00721109 0.0056483 0.00439879 0.00340602 0.00262218 0.00200715 0.00152758 0.00115595 0.000869733 0.000650657 0.000483996 0.000357981 0.000263276 0.000192533 0.000140006 0.000101239 7.27985e-05 5.20581e-05 3.70243e-05 2.61934e-05 1.84401e-05 1.29282e-05 9.04171e-06 6.33114e-06 4.47283e-06 3.23831e-06 2.47189e-06 2.07498e-06 


0.934798 0.870032 0.806131 0.743504 0.682537 0.623583 0.566956 0.512928 0.461723 0.413517 0.368438 0.326562 0.287921 0.252501 0.22025 0.191077 0.164863 0.141464 0.120714 0.102435 0.0864376 0.0725289 0.060515 0.0502053 0.0414155 0.0339701 0.0277041 0.0224648 0.018112 0.0145188 0.0115717 0.0091699 0.00722484 0.00565966 0.0044081 0.0034136 0.00262831 0.00201208 0.00153151 0.00115906 0.000872181 0.000652569 0.00048548 0.000359125 0.000264153 0.0001932 0.00014051 0.000101618 7.3081e-05 5.22677e-05 3.71788e-05 2.63066e-05 1.85226e-05 1.29881e-05 9.08509e-06 6.36261e-06 4.49588e-06 3.2556e-06 2.48552e-06 2.08668e-06 