# vtk DataFile Version 2.0
files//coalStoveUnsteady_3D_740.vtk
ASCII
DATASET UNSTRUCTURED_GRID
POINTS 162 double
0 0 0 
0 0 0.333333 
0 0 0.666667 
0 0 1 
0 0 1.33333 
0 0 1.66667 
0 0 2 
0 0 2.33333 
0 0 2.66667 
0 0 3 
0 0 3.33333 
0 0 3.66667 
0 0 4 
0 0 4.33333 
0 0 4.66667 
0 0 5 
0 0 5.33333 
0 0 5.66667 
0 0.333333 0 
0 0.333333 0.333333 
0 0.333333 0.666667 
0 0.333333 1 
0 0.333333 1.33333 
0 0.333333 1.66667 
0 0.333333 2 
0 0.333333 2.33333 
0 0.333333 2.66667 
0 0.333333 3 
0 0.333333 3.33333 
0 0.333333 3.66667 
0 0.333333 4 
0 0.333333 4.33333 
0 0.333333 4.66667 
0 0.333333 5 
0 0.333333 5.33333 
0 0.333333 5.66667 
0 0.666667 0 
0 0.666667 0.333333 
0 0.666667 0.666667 
0 0.666667 1 
0 0.666667 1.33333 
0 0.666667 1.66667 
0 0.666667 2 
0 0.666667 2.33333 
0 0.666667 2.66667 
0 0.666667 3 
0 0.666667 3.33333 
0 0.666667 3.66667 
0 0.666667 4 
0 0.666667 4.33333 
0 0.666667 4.66667 
0 0.666667 5 
0 0.666667 5.33333 
0 0.666667 5.66667 
0.333333 0 0 
0.333333 0 0.333333 
0.333333 0 0.666667 
0.333333 0 1 
0.333333 0 1.33333 
0.333333 0 1.66667 
0.333333 0 2 
0.333333 0 2.33333 
0.333333 0 2.66667 
0.333333 0 3 
0.333333 0 3.33333 
0.333333 0 3.66667 
0.333333 0 4 
0.333333 0 4.33333 
0.333333 0 4.66667 
0.333333 0 5 
0.333333 0 5.33333 
0.333333 0 5.66667 
0.333333 0.333333 0 
0.333333 0.333333 0.333333 
0.333333 0.333333 0.666667 
0.333333 0.333333 1 
0.333333 0.333333 1.33333 
0.333333 0.333333 1.66667 
0.333333 0.333333 2 
0.333333 0.333333 2.33333 
0.333333 0.333333 2.66667 
0.333333 0.333333 3 
0.333333 0.333333 3.33333 
0.333333 0.333333 3.66667 
0.333333 0.333333 4 
0.333333 0.333333 4.33333 
0.333333 0.333333 4.66667 
0.333333 0.333333 5 
0.333333 0.333333 5.33333 
0.333333 0.333333 5.66667 
0.333333 0.666667 0 
0.333333 0.666667 0.333333 
0.333333 0.666667 0.666667 
0.333333 0.666667 1 
0.333333 0.666667 1.33333 
0.333333 0.666667 1.66667 
0.333333 0.666667 2 
0.333333 0.666667 2.33333 
0.333333 0.666667 2.66667 
0.333333 0.666667 3 
0.333333 0.666667 3.33333 
0.333333 0.666667 3.66667 
0.333333 0.666667 4 
0.333333 0.666667 4.33333 
0.333333 0.666667 4.66667 
0.333333 0.666667 5 
0.333333 0.666667 5.33333 
0.333333 0.666667 5.66667 
0.666667 0 0 
0.666667 0 0.333333 
0.666667 0 0.666667 
0.666667 0 1 
0.666667 0 1.33333 
0.666667 0 1.66667 
0.666667 0 2 
0.666667 0 2.33333 
0.666667 0 2.66667 
0.666667 0 3 
0.666667 0 3.33333 
0.666667 0 3.66667 
0.666667 0 4 
0.666667 0 4.33333 
0.666667 0 4.66667 
0.666667 0 5 
0.666667 0 5.33333 
0.666667 0 5.66667 
0.666667 0.333333 0 
0.666667 0.333333 0.333333 
0.666667 0.333333 0.666667 
0.666667 0.333333 1 
0.666667 0.333333 1.33333 
0.666667 0.333333 1.66667 
0.666667 0.333333 2 
0.666667 0.333333 2.33333 
0.666667 0.333333 2.66667 
0.666667 0.333333 3 
0.666667 0.333333 3.33333 
0.666667 0.333333 3.66667 
0.666667 0.333333 4 
0.666667 0.333333 4.33333 
0.666667 0.333333 4.66667 
0.666667 0.333333 5 
0.666667 0.333333 5.33333 
0.666667 0.333333 5.66667 
0.666667 0.666667 0 
0.666667 0.666667 0.333333 
0.666667 0.666667 0.666667 
0.666667 0.666667 1 
0.666667 0.666667 1.33333 
0.666667 0.666667 1.66667 
0.666667 0.666667 2 
0.666667 0.666667 2.33333 
0.666667 0.666667 2.66667 
0.666667 0.666667 3 
0.666667 0.666667 3.33333 
0.666667 0.666667 3.66667 
0.666667 0.666667 4 
0.666667 0.666667 4.33333 
0.666667 0.666667 4.66667 
0.666667 0.666667 5 
0.666667 0.666667 5.33333 
0.666667 0.666667 5.66667 
CELLS 68 612
8 0 54 72 18 1 55 73 19
8 1 55 73 19 2 56 74 20
8 2 56 74 20 3 57 75 21
8 3 57 75 21 4 58 76 22
8 4 58 76 22 5 59 77 23
8 5 59 77 23 6 60 78 24
8 6 60 78 24 7 61 79 25
8 7 61 79 25 8 62 80 26
8 8 62 80 26 9 63 81 27
8 9 63 81 27 10 64 82 28
8 10 64 82 28 11 65 83 29
8 11 65 83 29 12 66 84 30
8 12 66 84 30 13 67 85 31
8 13 67 85 31 14 68 86 32
8 14 68 86 32 15 69 87 33
8 15 69 87 33 16 70 88 34
8 16 70 88 34 17 71 89 35
8 18 72 90 36 19 73 91 37
8 19 73 91 37 20 74 92 38
8 20 74 92 38 21 75 93 39
8 21 75 93 39 22 76 94 40
8 22 76 94 40 23 77 95 41
8 23 77 95 41 24 78 96 42
8 24 78 96 42 25 79 97 43
8 25 79 97 43 26 80 98 44
8 26 80 98 44 27 81 99 45
8 27 81 99 45 28 82 100 46
8 28 82 100 46 29 83 101 47
8 29 83 101 47 30 84 102 48
8 30 84 102 48 31 85 103 49
8 31 85 103 49 32 86 104 50
8 32 86 104 50 33 87 105 51
8 33 87 105 51 34 88 106 52
8 34 88 106 52 35 89 107 53
8 54 108 126 72 55 109 127 73
8 55 109 127 73 56 110 128 74
8 56 110 128 74 57 111 129 75
8 57 111 129 75 58 112 130 76
8 58 112 130 76 59 113 131 77
8 59 113 131 77 60 114 132 78
8 60 114 132 78 61 115 133 79
8 61 115 133 79 62 116 134 80
8 62 116 134 80 63 117 135 81
8 63 117 135 81 64 118 136 82
8 64 118 136 82 65 119 137 83
8 65 119 137 83 66 120 138 84
8 66 120 138 84 67 121 139 85
8 67 121 139 85 68 122 140 86
8 68 122 140 86 69 123 141 87
8 69 123 141 87 70 124 142 88
8 70 124 142 88 71 125 143 89
8 72 126 144 90 73 127 145 91
8 73 127 145 91 74 128 146 92
8 74 128 146 92 75 129 147 93
8 75 129 147 93 76 130 148 94
8 76 130 148 94 77 131 149 95
8 77 131 149 95 78 132 150 96
8 78 132 150 96 79 133 151 97
8 79 133 151 97 80 134 152 98
8 80 134 152 98 81 135 153 99
8 81 135 153 99 82 136 154 100
8 82 136 154 100 83 137 155 101
8 83 137 155 101 84 138 156 102
8 84 138 156 102 85 139 157 103
8 85 139 157 103 86 140 158 104
8 86 140 158 104 87 141 159 105
8 87 141 159 105 88 142 160 106
8 88 142 160 106 89 143 161 107
CELL_TYPES 68
12
12
12
12
12
12
12
12
12
12
12
12
12
12
12
12
12
12
12
12
12
12
12
12
12
12
12
12
12
12
12
12
12
12
12
12
12
12
12
12
12
12
12
12
12
12
12
12
12
12
12
12
12
12
12
12
12
12
12
12
12
12
12
12
12
12
12
12
POINT_DATA 162
SCALARS cell double
LOOKUP_TABLE default
0.970575 0.941357 0.91255 0.884357 0.856976 0.830598 0.805409 0.781586 0.759295 0.738694 0.719926 0.703123 0.688404 0.67587 0.665611 0.657698 0.652186 0.649115 
0.970592 0.941391 0.912601 0.884424 0.857058 0.830696 0.805522 0.781712 0.759435 0.738845 0.720088 0.703295 0.688584 0.676058 0.665805 0.657896 0.652388 0.649318 
0.970575 0.941357 0.91255 0.884357 0.856976 0.830598 0.805409 0.781586 0.759295 0.738694 0.719926 0.703123 0.688404 0.67587 0.665611 0.657698 0.652186 0.649115 


0.970592 0.941391 0.912601 0.884424 0.857058 0.830696 0.805522 0.781712 0.759435 0.738845 0.720088 0.703295 0.688584 0.676058 0.665805 0.657896 0.652388 0.649318 
0.970609 0.941425 0.912651 0.884491 0.857141 0.830794 0.805634 0.781839 0.759574 0.738996 0.72025 0.703467 0.688765 0.676246 0.665998 0.658094 0.652589 0.649521 
0.970592 0.941391 0.912601 0.884424 0.857058 0.830696 0.805522 0.781712 0.759435 0.738845 0.720088 0.703295 0.688584 0.676058 0.665805 0.657896 0.652388 0.649318 


0.970575 0.941357 0.91255 0.884357 0.856976 0.830598 0.805409 0.781586 0.759295 0.738694 0.719926 0.703123 0.688404 0.67587 0.665611 0.657698 0.652186 0.649115 
0.970592 0.941391 0.912601 0.884424 0.857058 0.830696 0.805522 0.781712 0.759435 0.738845 0.720088 0.703295 0.688584 0.676058 0.665805 0.657896 0.652388 0.649318 
0.970575 0.941357 0.91255 0.884357 0.856976 0.830598 0.805409 0.781586 0.759295 0.738694 0.719926 0.703123 0.688404 0.67587 0.665611 0.657698 0.652186 0.649115 



