# vtk DataFile Version 2.0
files//coalStoveUnsteady_2D_375.vtk
ASCII
DATASET UNSTRUCTURED_GRID
POINTS 100 double
0 0 0 
0 0.1 0 
0 0.2 0 
0 0.3 0 
0 0.4 0 
0 0.5 0 
0 0.6 0 
0 0.7 0 
0 0.8 0 
0 0.9 0 
0.1 0 0 
0.1 0.1 0 
0.1 0.2 0 
0.1 0.3 0 
0.1 0.4 0 
0.1 0.5 0 
0.1 0.6 0 
0.1 0.7 0 
0.1 0.8 0 
0.1 0.9 0 
0.2 0 0 
0.2 0.1 0 
0.2 0.2 0 
0.2 0.3 0 
0.2 0.4 0 
0.2 0.5 0 
0.2 0.6 0 
0.2 0.7 0 
0.2 0.8 0 
0.2 0.9 0 
0.3 0 0 
0.3 0.1 0 
0.3 0.2 0 
0.3 0.3 0 
0.3 0.4 0 
0.3 0.5 0 
0.3 0.6 0 
0.3 0.7 0 
0.3 0.8 0 
0.3 0.9 0 
0.4 0 0 
0.4 0.1 0 
0.4 0.2 0 
0.4 0.3 0 
0.4 0.4 0 
0.4 0.5 0 
0.4 0.6 0 
0.4 0.7 0 
0.4 0.8 0 
0.4 0.9 0 
0.5 0 0 
0.5 0.1 0 
0.5 0.2 0 
0.5 0.3 0 
0.5 0.4 0 
0.5 0.5 0 
0.5 0.6 0 
0.5 0.7 0 
0.5 0.8 0 
0.5 0.9 0 
0.6 0 0 
0.6 0.1 0 
0.6 0.2 0 
0.6 0.3 0 
0.6 0.4 0 
0.6 0.5 0 
0.6 0.6 0 
0.6 0.7 0 
0.6 0.8 0 
0.6 0.9 0 
0.7 0 0 
0.7 0.1 0 
0.7 0.2 0 
0.7 0.3 0 
0.7 0.4 0 
0.7 0.5 0 
0.7 0.6 0 
0.7 0.7 0 
0.7 0.8 0 
0.7 0.9 0 
0.8 0 0 
0.8 0.1 0 
0.8 0.2 0 
0.8 0.3 0 
0.8 0.4 0 
0.8 0.5 0 
0.8 0.6 0 
0.8 0.7 0 
0.8 0.8 0 
0.8 0.9 0 
0.9 0 0 
0.9 0.1 0 
0.9 0.2 0 
0.9 0.3 0 
0.9 0.4 0 
0.9 0.5 0 
0.9 0.6 0 
0.9 0.7 0 
0.9 0.8 0 
0.9 0.9 0 
CELLS 81 405
4 0 10 11 1
4 1 11 12 2
4 2 12 13 3
4 3 13 14 4
4 4 14 15 5
4 5 15 16 6
4 6 16 17 7
4 7 17 18 8
4 8 18 19 9
4 10 20 21 11
4 11 21 22 12
4 12 22 23 13
4 13 23 24 14
4 14 24 25 15
4 15 25 26 16
4 16 26 27 17
4 17 27 28 18
4 18 28 29 19
4 20 30 31 21
4 21 31 32 22
4 22 32 33 23
4 23 33 34 24
4 24 34 35 25
4 25 35 36 26
4 26 36 37 27
4 27 37 38 28
4 28 38 39 29
4 30 40 41 31
4 31 41 42 32
4 32 42 43 33
4 33 43 44 34
4 34 44 45 35
4 35 45 46 36
4 36 46 47 37
4 37 47 48 38
4 38 48 49 39
4 40 50 51 41
4 41 51 52 42
4 42 52 53 43
4 43 53 54 44
4 44 54 55 45
4 45 55 56 46
4 46 56 57 47
4 47 57 58 48
4 48 58 59 49
4 50 60 61 51
4 51 61 62 52
4 52 62 63 53
4 53 63 64 54
4 54 64 65 55
4 55 65 66 56
4 56 66 67 57
4 57 67 68 58
4 58 68 69 59
4 60 70 71 61
4 61 71 72 62
4 62 72 73 63
4 63 73 74 64
4 64 74 75 65
4 65 75 76 66
4 66 76 77 67
4 67 77 78 68
4 68 78 79 69
4 70 80 81 71
4 71 81 82 72
4 72 82 83 73
4 73 83 84 74
4 74 84 85 75
4 75 85 86 76
4 76 86 87 77
4 77 87 88 78
4 78 88 89 79
4 80 90 91 81
4 81 91 92 82
4 82 92 93 83
4 83 93 94 84
4 84 94 95 85
4 85 95 96 86
4 86 96 97 87
4 87 97 98 88
4 88 98 99 89
CELL_TYPES 81
9
9
9
9
9
9
9
9
9
9
9
9
9
9
9
9
9
9
9
9
9
9
9
9
9
9
9
9
9
9
9
9
9
9
9
9
9
9
9
9
9
9
9
9
9
9
9
9
9
9
9
9
9
9
9
9
9
9
9
9
9
9
9
9
9
9
9
9
9
9
9
9
9
9
9
9
9
9
9
9
9
POINT_DATA 100
SCALARS cell double
LOOKUP_TABLE default
0.997128 0.994488 0.992295 0.990726 0.989909 0.989909 0.990726 0.992295 0.994488 0.997128 
0.994488 0.989423 0.985214 0.982204 0.980635 0.980635 0.982204 0.985214 0.989423 0.994488 
0.992295 0.985214 0.979331 0.975123 0.97293 0.97293 0.975123 0.979331 0.985214 0.992295 
0.990726 0.982204 0.975123 0.970057 0.967418 0.967418 0.970057 0.975123 0.982204 0.990726 
0.989909 0.980635 0.97293 0.967418 0.964545 0.964545 0.967418 0.97293 0.980635 0.989909 
0.989909 0.980635 0.97293 0.967418 0.964545 0.964545 0.967418 0.97293 0.980635 0.989909 
0.990726 0.982204 0.975123 0.970057 0.967418 0.967418 0.970057 0.975123 0.982204 0.990726 
0.992295 0.985214 0.979331 0.975123 0.97293 0.97293 0.975123 0.979331 0.985214 0.992295 
0.994488 0.989423 0.985214 0.982204 0.980635 0.980635 0.982204 0.985214 0.989423 0.994488 
0.997128 0.994488 0.992295 0.990726 0.989909 0.989909 0.990726 0.992295 0.994488 0.997128 

