# vtk DataFile Version 3.0
cell
ASCII
DATASET STRUCTURED_POINTS
DIMENSIONS 12 12 1
ORIGIN 0 0 0
SPACING 1 1 1
POINT_DATA 144
SCALARS cell double
LOOKUP_TABLE default
1 1 1 1 1 1 1 1 1 1 1 1 
1 0.999982 0.999965 0.999951 0.999942 0.999936 0.999936 0.999942 0.999951 0.999965 0.999982 1 
1 0.999965 0.999933 0.999907 0.999888 0.999878 0.999878 0.999888 0.999907 0.999933 0.999965 1 
1 0.999951 0.999907 0.99987 0.999843 0.999829 0.999829 0.999843 0.99987 0.999907 0.999951 1 
1 0.999942 0.999888 0.999843 0.999811 0.999795 0.999795 0.999811 0.999843 0.999888 0.999942 1 
1 0.999936 0.999878 0.999829 0.999795 0.999777 0.999777 0.999795 0.999829 0.999878 0.999936 1 
1 0.999936 0.999878 0.999829 0.999795 0.999777 0.999777 0.999795 0.999829 0.999878 0.999936 1 
1 0.999942 0.999888 0.999843 0.999811 0.999795 0.999795 0.999811 0.999843 0.999888 0.999942 1 
1 0.999951 0.999907 0.99987 0.999843 0.999829 0.999829 0.999843 0.99987 0.999907 0.999951 1 
1 0.999965 0.999933 0.999907 0.999888 0.999878 0.999878 0.999888 0.999907 0.999933 0.999965 1 
1 0.999982 0.999965 0.999951 0.999942 0.999936 0.999936 0.999942 0.999951 0.999965 0.999982 1 
1 1 1 1 1 1 1 1 1 1 1 1 

