# vtk DataFile Version 3.0
cell
ASCII
DATASET STRUCTURED_POINTS
DIMENSIONS 12 12 1
ORIGIN 0 0 0
SPACING 1 1 1
POINT_DATA 144
SCALARS cell double
LOOKUP_TABLE default
1 1 1 1 1 1 1 1 1 1 1 1 
1 0.999177 0.99842 0.997792 0.997342 0.997108 0.997108 0.997342 0.997792 0.99842 0.999177 1 
1 0.99842 0.996969 0.995763 0.9949 0.994451 0.994451 0.9949 0.995763 0.996969 0.99842 1 
1 0.997792 0.995763 0.994077 0.992871 0.992243 0.992243 0.992871 0.994077 0.995763 0.997792 1 
1 0.997342 0.9949 0.992871 0.991419 0.990663 0.990663 0.991419 0.992871 0.9949 0.997342 1 
1 0.997108 0.994451 0.992243 0.990663 0.98984 0.98984 0.990663 0.992243 0.994451 0.997108 1 
1 0.997108 0.994451 0.992243 0.990663 0.98984 0.98984 0.990663 0.992243 0.994451 0.997108 1 
1 0.997342 0.9949 0.992871 0.991419 0.990663 0.990663 0.991419 0.992871 0.9949 0.997342 1 
1 0.997792 0.995763 0.994077 0.992871 0.992243 0.992243 0.992871 0.994077 0.995763 0.997792 1 
1 0.99842 0.996969 0.995763 0.9949 0.994451 0.994451 0.9949 0.995763 0.996969 0.99842 1 
1 0.999177 0.99842 0.997792 0.997342 0.997108 0.997108 0.997342 0.997792 0.99842 0.999177 1 
1 1 1 1 1 1 1 1 1 1 1 1 

