# vtk DataFile Version 3.0
cell
ASCII
DATASET STRUCTURED_POINTS
DIMENSIONS 12 12 1
ORIGIN 0 0 0
SPACING 1 1 1
POINT_DATA 144
SCALARS cell double
LOOKUP_TABLE default
1 1 1 1 1 1 1 1 1 1 1 1 
1 0.999994 0.999989 0.999985 0.999982 0.99998 0.99998 0.999982 0.999985 0.999989 0.999994 1 
1 0.999989 0.999979 0.999971 0.999965 0.999962 0.999962 0.999965 0.999971 0.999979 0.999989 1 
1 0.999985 0.999971 0.99996 0.999951 0.999947 0.999947 0.999951 0.99996 0.999971 0.999985 1 
1 0.999982 0.999965 0.999951 0.999941 0.999936 0.999936 0.999941 0.999951 0.999965 0.999982 1 
1 0.99998 0.999962 0.999947 0.999936 0.999931 0.999931 0.999936 0.999947 0.999962 0.99998 1 
1 0.99998 0.999962 0.999947 0.999936 0.999931 0.999931 0.999936 0.999947 0.999962 0.99998 1 
1 0.999982 0.999965 0.999951 0.999941 0.999936 0.999936 0.999941 0.999951 0.999965 0.999982 1 
1 0.999985 0.999971 0.99996 0.999951 0.999947 0.999947 0.999951 0.99996 0.999971 0.999985 1 
1 0.999989 0.999979 0.999971 0.999965 0.999962 0.999962 0.999965 0.999971 0.999979 0.999989 1 
1 0.999994 0.999989 0.999985 0.999982 0.99998 0.99998 0.999982 0.999985 0.999989 0.999994 1 
1 1 1 1 1 1 1 1 1 1 1 1 

