# vtk DataFile Version 3.0
cell
ASCII
DATASET STRUCTURED_POINTS
DIMENSIONS 12 12 1
ORIGIN 0 0 0
SPACING 1 1 1
POINT_DATA 144
SCALARS cell double
LOOKUP_TABLE default
1 1 1 1 1 1 1 1 1 1 1 1 
1 0.995805 0.99195 0.988747 0.986456 0.985262 0.985262 0.986456 0.988747 0.99195 0.995805 1 
1 0.99195 0.984552 0.978406 0.974009 0.971718 0.971718 0.974009 0.978406 0.984552 0.99195 1 
1 0.988747 0.978406 0.969814 0.963668 0.960465 0.960465 0.963668 0.969814 0.978406 0.988747 1 
1 0.986456 0.974009 0.963668 0.95627 0.952415 0.952415 0.95627 0.963668 0.974009 0.986456 1 
1 0.985262 0.971718 0.960465 0.952415 0.94822 0.94822 0.952415 0.960465 0.971718 0.985262 1 
1 0.985262 0.971718 0.960465 0.952415 0.94822 0.94822 0.952415 0.960465 0.971718 0.985262 1 
1 0.986456 0.974009 0.963668 0.95627 0.952415 0.952415 0.95627 0.963668 0.974009 0.986456 1 
1 0.988747 0.978406 0.969814 0.963668 0.960465 0.960465 0.963668 0.969814 0.978406 0.988747 1 
1 0.99195 0.984552 0.978406 0.974009 0.971718 0.971718 0.974009 0.978406 0.984552 0.99195 1 
1 0.995805 0.99195 0.988747 0.986456 0.985262 0.985262 0.986456 0.988747 0.99195 0.995805 1 
1 1 1 1 1 1 1 1 1 1 1 1 

