# vtk DataFile Version 3.0
cell
ASCII
DATASET STRUCTURED_POINTS
DIMENSIONS 12 12 1
ORIGIN 0 0 0
SPACING 1 1 1
POINT_DATA 144
SCALARS cell double
LOOKUP_TABLE default
1 1 1 1 1 1 1 1 1 1 1 1 
1 0.999984 0.99997 0.999958 0.99995 0.999945 0.999945 0.99995 0.999958 0.99997 0.999984 1 
1 0.99997 0.999943 0.99992 0.999904 0.999895 0.999895 0.999904 0.99992 0.999943 0.99997 1 
1 0.999958 0.99992 0.999888 0.999865 0.999854 0.999854 0.999865 0.999888 0.99992 0.999958 1 
1 0.99995 0.999904 0.999865 0.999838 0.999824 0.999824 0.999838 0.999865 0.999904 0.99995 1 
1 0.999945 0.999895 0.999854 0.999824 0.999808 0.999808 0.999824 0.999854 0.999895 0.999945 1 
1 0.999945 0.999895 0.999854 0.999824 0.999808 0.999808 0.999824 0.999854 0.999895 0.999945 1 
1 0.99995 0.999904 0.999865 0.999838 0.999824 0.999824 0.999838 0.999865 0.999904 0.99995 1 
1 0.999958 0.99992 0.999888 0.999865 0.999854 0.999854 0.999865 0.999888 0.99992 0.999958 1 
1 0.99997 0.999943 0.99992 0.999904 0.999895 0.999895 0.999904 0.99992 0.999943 0.99997 1 
1 0.999984 0.99997 0.999958 0.99995 0.999945 0.999945 0.99995 0.999958 0.99997 0.999984 1 
1 1 1 1 1 1 1 1 1 1 1 1 

