# vtk DataFile Version 3.0
cell
ASCII
DATASET STRUCTURED_POINTS
DIMENSIONS 12 12 1
ORIGIN 0 0 0
SPACING 1 1 1
POINT_DATA 144
SCALARS cell double
LOOKUP_TABLE default
1 1 1 1 1 1 1 1 1 1 1 1 
1 0.996399 0.99309 0.99034 0.988374 0.987349 0.987349 0.988374 0.99034 0.99309 0.996399 1 
1 0.99309 0.986739 0.981463 0.977689 0.975722 0.975722 0.977689 0.981463 0.986739 0.99309 1 
1 0.99034 0.981463 0.974088 0.968812 0.966063 0.966063 0.968812 0.974088 0.981463 0.99034 1 
1 0.988374 0.977689 0.968812 0.962462 0.959153 0.959153 0.962462 0.968812 0.977689 0.988374 1 
1 0.987349 0.975722 0.966063 0.959153 0.955552 0.955552 0.959153 0.966063 0.975722 0.987349 1 
1 0.987349 0.975722 0.966063 0.959153 0.955552 0.955552 0.959153 0.966063 0.975722 0.987349 1 
1 0.988374 0.977689 0.968812 0.962462 0.959153 0.959153 0.962462 0.968812 0.977689 0.988374 1 
1 0.99034 0.981463 0.974088 0.968812 0.966063 0.966063 0.968812 0.974088 0.981463 0.99034 1 
1 0.99309 0.986739 0.981463 0.977689 0.975722 0.975722 0.977689 0.981463 0.986739 0.99309 1 
1 0.996399 0.99309 0.99034 0.988374 0.987349 0.987349 0.988374 0.99034 0.99309 0.996399 1 
1 1 1 1 1 1 1 1 1 1 1 1 

