# vtk DataFile Version 3.0
cell
ASCII
DATASET STRUCTURED_POINTS
DIMENSIONS 12 12 1
ORIGIN 0 0 0
SPACING 1 1 1
POINT_DATA 144
SCALARS cell double
LOOKUP_TABLE default
1 1 1 1 1 1 1 1 1 1 1 1 
1 0.999821 0.999657 0.99952 0.999423 0.999372 0.999372 0.999423 0.99952 0.999657 0.999821 1 
1 0.999657 0.999342 0.99908 0.998892 0.998794 0.998794 0.998892 0.99908 0.999342 0.999657 1 
1 0.99952 0.99908 0.998713 0.998451 0.998315 0.998315 0.998451 0.998713 0.99908 0.99952 1 
1 0.999423 0.998892 0.998451 0.998136 0.997972 0.997972 0.998136 0.998451 0.998892 0.999423 1 
1 0.999372 0.998794 0.998315 0.997972 0.997793 0.997793 0.997972 0.998315 0.998794 0.999372 1 
1 0.999372 0.998794 0.998315 0.997972 0.997793 0.997793 0.997972 0.998315 0.998794 0.999372 1 
1 0.999423 0.998892 0.998451 0.998136 0.997972 0.997972 0.998136 0.998451 0.998892 0.999423 1 
1 0.99952 0.99908 0.998713 0.998451 0.998315 0.998315 0.998451 0.998713 0.99908 0.99952 1 
1 0.999657 0.999342 0.99908 0.998892 0.998794 0.998794 0.998892 0.99908 0.999342 0.999657 1 
1 0.999821 0.999657 0.99952 0.999423 0.999372 0.999372 0.999423 0.99952 0.999657 0.999821 1 
1 1 1 1 1 1 1 1 1 1 1 1 

