# vtk DataFile Version 3.0
cell
ASCII
DATASET STRUCTURED_POINTS
DIMENSIONS 12 12 1
ORIGIN 0 0 0
SPACING 1 1 1
POINT_DATA 144
SCALARS cell double
LOOKUP_TABLE default
1 1 1 1 1 1 1 1 1 1 1 1 
1 0.997835 0.995846 0.994193 0.993011 0.992395 0.992395 0.993011 0.994193 0.995846 0.997835 1 
1 0.995846 0.992029 0.988857 0.986588 0.985406 0.985406 0.986588 0.988857 0.992029 0.995846 1 
1 0.994193 0.988857 0.984423 0.981252 0.979599 0.979599 0.981252 0.984423 0.988857 0.994193 1 
1 0.993011 0.986588 0.981252 0.977434 0.975445 0.975445 0.977434 0.981252 0.986588 0.993011 1 
1 0.992395 0.985406 0.979599 0.975445 0.97328 0.97328 0.975445 0.979599 0.985406 0.992395 1 
1 0.992395 0.985406 0.979599 0.975445 0.97328 0.97328 0.975445 0.979599 0.985406 0.992395 1 
1 0.993011 0.986588 0.981252 0.977434 0.975445 0.975445 0.977434 0.981252 0.986588 0.993011 1 
1 0.994193 0.988857 0.984423 0.981252 0.979599 0.979599 0.981252 0.984423 0.988857 0.994193 1 
1 0.995846 0.992029 0.988857 0.986588 0.985406 0.985406 0.986588 0.988857 0.992029 0.995846 1 
1 0.997835 0.995846 0.994193 0.993011 0.992395 0.992395 0.993011 0.994193 0.995846 0.997835 1 
1 1 1 1 1 1 1 1 1 1 1 1 

