# vtk DataFile Version 3.0
cell
ASCII
DATASET STRUCTURED_POINTS
DIMENSIONS 12 12 1
ORIGIN 0 0 0
SPACING 1 1 1
POINT_DATA 144
SCALARS cell double
LOOKUP_TABLE default
1 1 1 1 1 1 1 1 1 1 1 1 
1 0.999959 0.999922 0.99989 0.999868 0.999856 0.999856 0.999868 0.99989 0.999922 0.999959 1 
1 0.999922 0.999849 0.99979 0.999747 0.999724 0.999724 0.999747 0.99979 0.999849 0.999922 1 
1 0.99989 0.99979 0.999706 0.999646 0.999615 0.999615 0.999646 0.999706 0.99979 0.99989 1 
1 0.999868 0.999747 0.999646 0.999574 0.999536 0.999536 0.999574 0.999646 0.999747 0.999868 1 
1 0.999856 0.999724 0.999615 0.999536 0.999495 0.999495 0.999536 0.999615 0.999724 0.999856 1 
1 0.999856 0.999724 0.999615 0.999536 0.999495 0.999495 0.999536 0.999615 0.999724 0.999856 1 
1 0.999868 0.999747 0.999646 0.999574 0.999536 0.999536 0.999574 0.999646 0.999747 0.999868 1 
1 0.99989 0.99979 0.999706 0.999646 0.999615 0.999615 0.999646 0.999706 0.99979 0.99989 1 
1 0.999922 0.999849 0.99979 0.999747 0.999724 0.999724 0.999747 0.99979 0.999849 0.999922 1 
1 0.999959 0.999922 0.99989 0.999868 0.999856 0.999856 0.999868 0.99989 0.999922 0.999959 1 
1 1 1 1 1 1 1 1 1 1 1 1 

