# vtk DataFile Version 3.0
cell
ASCII
DATASET STRUCTURED_POINTS
DIMENSIONS 12 12 1
ORIGIN 0 0 0
SPACING 1 1 1
POINT_DATA 144
SCALARS cell double
LOOKUP_TABLE default
1 1 1 1 1 1 1 1 1 1 1 1 
1 0.999989 0.999979 0.999971 0.999965 0.999962 0.999962 0.999965 0.999971 0.999979 0.999989 1 
1 0.999979 0.99996 0.999944 0.999933 0.999927 0.999927 0.999933 0.999944 0.99996 0.999979 1 
1 0.999971 0.999944 0.999922 0.999906 0.999897 0.999897 0.999906 0.999922 0.999944 0.999971 1 
1 0.999965 0.999933 0.999906 0.999887 0.999877 0.999877 0.999887 0.999906 0.999933 0.999965 1 
1 0.999962 0.999927 0.999897 0.999877 0.999866 0.999866 0.999877 0.999897 0.999927 0.999962 1 
1 0.999962 0.999927 0.999897 0.999877 0.999866 0.999866 0.999877 0.999897 0.999927 0.999962 1 
1 0.999965 0.999933 0.999906 0.999887 0.999877 0.999877 0.999887 0.999906 0.999933 0.999965 1 
1 0.999971 0.999944 0.999922 0.999906 0.999897 0.999897 0.999906 0.999922 0.999944 0.999971 1 
1 0.999979 0.99996 0.999944 0.999933 0.999927 0.999927 0.999933 0.999944 0.99996 0.999979 1 
1 0.999989 0.999979 0.999971 0.999965 0.999962 0.999962 0.999965 0.999971 0.999979 0.999989 1 
1 1 1 1 1 1 1 1 1 1 1 1 

