# vtk DataFile Version 3.0
cell
ASCII
DATASET STRUCTURED_POINTS
DIMENSIONS 12 12 1
ORIGIN 0 0 0
SPACING 1 1 1
POINT_DATA 144
SCALARS cell double
LOOKUP_TABLE default
1 1 1 1 1 1 1 1 1 1 1 1 
1 0.819322 0.68775 0.616294 0.586548 0.577271 0.577271 0.586548 0.616294 0.68775 0.819322 1 
1 0.68775 0.460748 0.337839 0.286881 0.271057 0.271057 0.286881 0.337839 0.460748 0.68775 1 
1 0.616294 0.337839 0.187548 0.125496 0.106312 0.106312 0.125496 0.187548 0.337839 0.616294 1 
1 0.586548 0.286881 0.125496 0.0590514 0.0385694 0.0385694 0.0590514 0.125496 0.286881 0.586548 1 
1 0.577271 0.271057 0.106312 0.0385694 0.0177143 0.0177143 0.0385694 0.106312 0.271057 0.577271 1 
1 0.577271 0.271057 0.106312 0.0385694 0.0177143 0.0177143 0.0385694 0.106312 0.271057 0.577271 1 
1 0.586548 0.286881 0.125496 0.0590514 0.0385694 0.0385694 0.0590514 0.125496 0.286881 0.586548 1 
1 0.616294 0.337839 0.187548 0.125496 0.106312 0.106312 0.125496 0.187548 0.337839 0.616294 1 
1 0.68775 0.460748 0.337839 0.286881 0.271057 0.271057 0.286881 0.337839 0.460748 0.68775 1 
1 0.819322 0.68775 0.616294 0.586548 0.577271 0.577271 0.586548 0.616294 0.68775 0.819322 1 
1 1 1 1 1 1 1 1 1 1 1 1 

