# vtk DataFile Version 3.0
cell
ASCII
DATASET STRUCTURED_POINTS
DIMENSIONS 12 12 1
ORIGIN 0 0 0
SPACING 1 1 1
POINT_DATA 144
SCALARS cell double
LOOKUP_TABLE default
1 1 1 1 1 1 1 1 1 1 1 1 
1 0.722567 0.556736 0.492129 0.474515 0.471047 0.471047 0.474515 0.492129 0.556736 0.722567 1 
1 0.556736 0.293339 0.191702 0.164332 0.159019 0.159019 0.164332 0.191702 0.293339 0.556736 1 
1 0.492129 0.191702 0.0765971 0.0458682 0.039959 0.039959 0.0458682 0.0765971 0.191702 0.492129 1 
1 0.474515 0.164332 0.0458682 0.0143576 0.00832054 0.00832054 0.0143576 0.0458682 0.164332 0.474515 1 
1 0.471047 0.159019 0.039959 0.00832054 0.00226442 0.00226442 0.00832054 0.039959 0.159019 0.471047 1 
1 0.471047 0.159019 0.039959 0.00832054 0.00226442 0.00226442 0.00832054 0.039959 0.159019 0.471047 1 
1 0.474515 0.164332 0.0458682 0.0143576 0.00832054 0.00832054 0.0143576 0.0458682 0.164332 0.474515 1 
1 0.492129 0.191702 0.0765971 0.0458682 0.039959 0.039959 0.0458682 0.0765971 0.191702 0.492129 1 
1 0.556736 0.293339 0.191702 0.164332 0.159019 0.159019 0.164332 0.191702 0.293339 0.556736 1 
1 0.722567 0.556736 0.492129 0.474515 0.471047 0.471047 0.474515 0.492129 0.556736 0.722567 1 
1 1 1 1 1 1 1 1 1 1 1 1 

