# vtk DataFile Version 3.0
cell
ASCII
DATASET STRUCTURED_POINTS
DIMENSIONS 12 12 1
ORIGIN 0 0 0
SPACING 1 1 1
POINT_DATA 144
SCALARS cell double
LOOKUP_TABLE default
1 1 1 1 1 1 1 1 1 1 1 1 
1 0.99953 0.999098 0.998739 0.998482 0.998348 0.998348 0.998482 0.998739 0.999098 0.99953 1 
1 0.999098 0.998268 0.997579 0.997086 0.99683 0.99683 0.997086 0.997579 0.998268 0.999098 1 
1 0.998739 0.997579 0.996616 0.995927 0.995568 0.995568 0.995927 0.996616 0.997579 0.998739 1 
1 0.998482 0.997086 0.995927 0.995098 0.994666 0.994666 0.995098 0.995927 0.997086 0.998482 1 
1 0.998348 0.99683 0.995568 0.994666 0.994195 0.994195 0.994666 0.995568 0.99683 0.998348 1 
1 0.998348 0.99683 0.995568 0.994666 0.994195 0.994195 0.994666 0.995568 0.99683 0.998348 1 
1 0.998482 0.997086 0.995927 0.995098 0.994666 0.994666 0.995098 0.995927 0.997086 0.998482 1 
1 0.998739 0.997579 0.996616 0.995927 0.995568 0.995568 0.995927 0.996616 0.997579 0.998739 1 
1 0.999098 0.998268 0.997579 0.997086 0.99683 0.99683 0.997086 0.997579 0.998268 0.999098 1 
1 0.99953 0.999098 0.998739 0.998482 0.998348 0.998348 0.998482 0.998739 0.999098 0.99953 1 
1 1 1 1 1 1 1 1 1 1 1 1 

