# vtk DataFile Version 3.0
cell
ASCII
DATASET STRUCTURED_POINTS
DIMENSIONS 12 12 1
ORIGIN 0 0 0
SPACING 1 1 1
POINT_DATA 144
SCALARS cell double
LOOKUP_TABLE default
1 1 1 1 1 1 1 1 1 1 1 1 
1 0.99187 0.9844 0.978193 0.973753 0.971439 0.971439 0.973753 0.978193 0.9844 0.99187 1 
1 0.9844 0.970063 0.958152 0.949632 0.945192 0.945192 0.949632 0.958152 0.970063 0.9844 1 
1 0.978193 0.958152 0.941503 0.929592 0.923386 0.923386 0.929592 0.941503 0.958152 0.978193 1 
1 0.973753 0.949632 0.929592 0.915257 0.907787 0.907787 0.915257 0.929592 0.949632 0.973753 1 
1 0.971439 0.945192 0.923386 0.907787 0.899658 0.899658 0.907787 0.923386 0.945192 0.971439 1 
1 0.971439 0.945192 0.923386 0.907787 0.899658 0.899658 0.907787 0.923386 0.945192 0.971439 1 
1 0.973753 0.949632 0.929592 0.915257 0.907787 0.907787 0.915257 0.929592 0.949632 0.973753 1 
1 0.978193 0.958152 0.941503 0.929592 0.923386 0.923386 0.929592 0.941503 0.958152 0.978193 1 
1 0.9844 0.970063 0.958152 0.949632 0.945192 0.945192 0.949632 0.958152 0.970063 0.9844 1 
1 0.99187 0.9844 0.978193 0.973753 0.971439 0.971439 0.973753 0.978193 0.9844 0.99187 1 
1 1 1 1 1 1 1 1 1 1 1 1 

