# vtk DataFile Version 3.0
cell
ASCII
DATASET STRUCTURED_POINTS
DIMENSIONS 12 12 1
ORIGIN 0 0 0
SPACING 1 1 1
POINT_DATA 144
SCALARS cell double
LOOKUP_TABLE default
1 1 1 1 1 1 1 1 1 1 1 1 
1 0.946674 0.898452 0.859482 0.832452 0.818704 0.818704 0.832452 0.859482 0.898452 0.946674 1 
1 0.898452 0.806626 0.732419 0.680952 0.654773 0.654773 0.680952 0.732419 0.806626 0.898452 1 
1 0.859482 0.732419 0.629741 0.55853 0.52231 0.52231 0.55853 0.629741 0.732419 0.859482 1 
1 0.832452 0.680952 0.55853 0.473628 0.430447 0.430447 0.473628 0.55853 0.680952 0.832452 1 
1 0.818704 0.654773 0.52231 0.430447 0.383725 0.383725 0.430447 0.52231 0.654773 0.818704 1 
1 0.818704 0.654773 0.52231 0.430447 0.383725 0.383725 0.430447 0.52231 0.654773 0.818704 1 
1 0.832452 0.680952 0.55853 0.473628 0.430447 0.430447 0.473628 0.55853 0.680952 0.832452 1 
1 0.859482 0.732419 0.629741 0.55853 0.52231 0.52231 0.55853 0.629741 0.732419 0.859482 1 
1 0.898452 0.806626 0.732419 0.680952 0.654773 0.654773 0.680952 0.732419 0.806626 0.898452 1 
1 0.946674 0.898452 0.859482 0.832452 0.818704 0.818704 0.832452 0.859482 0.898452 0.946674 1 
1 1 1 1 1 1 1 1 1 1 1 1 

