# vtk DataFile Version 3.0
cell
ASCII
DATASET STRUCTURED_POINTS
DIMENSIONS 12 12 1
ORIGIN 0 0 0
SPACING 1 1 1
POINT_DATA 144
SCALARS cell double
LOOKUP_TABLE default
1 1 1 1 1 1 1 1 1 1 1 1 
1 0.999575 0.999185 0.998861 0.998629 0.998508 0.998508 0.998629 0.998861 0.999185 0.999575 1 
1 0.999185 0.998436 0.997814 0.997368 0.997136 0.997136 0.997368 0.997814 0.998436 0.999185 1 
1 0.998861 0.997814 0.996944 0.996321 0.995997 0.995997 0.996321 0.996944 0.997814 0.998861 1 
1 0.998629 0.997368 0.996321 0.995572 0.995182 0.995182 0.995572 0.996321 0.997368 0.998629 1 
1 0.998508 0.997136 0.995997 0.995182 0.994757 0.994757 0.995182 0.995997 0.997136 0.998508 1 
1 0.998508 0.997136 0.995997 0.995182 0.994757 0.994757 0.995182 0.995997 0.997136 0.998508 1 
1 0.998629 0.997368 0.996321 0.995572 0.995182 0.995182 0.995572 0.996321 0.997368 0.998629 1 
1 0.998861 0.997814 0.996944 0.996321 0.995997 0.995997 0.996321 0.996944 0.997814 0.998861 1 
1 0.999185 0.998436 0.997814 0.997368 0.997136 0.997136 0.997368 0.997814 0.998436 0.999185 1 
1 0.999575 0.999185 0.998861 0.998629 0.998508 0.998508 0.998629 0.998861 0.999185 0.999575 1 
1 1 1 1 1 1 1 1 1 1 1 1 

