# vtk DataFile Version 3.0
cell
ASCII
DATASET STRUCTURED_POINTS
DIMENSIONS 12 12 1
ORIGIN 0 0 0
SPACING 1 1 1
POINT_DATA 144
SCALARS cell double
LOOKUP_TABLE default
1 1 1 1 1 1 1 1 1 1 1 1 
1 0.999479 0.999001 0.998603 0.998319 0.998171 0.998171 0.998319 0.998603 0.999001 0.999479 1 
1 0.999001 0.998083 0.99732 0.996774 0.99649 0.99649 0.996774 0.99732 0.998083 0.999001 1 
1 0.998603 0.99732 0.996254 0.995491 0.995093 0.995093 0.995491 0.996254 0.99732 0.998603 1 
1 0.998319 0.996774 0.995491 0.994573 0.994094 0.994094 0.994573 0.995491 0.996774 0.998319 1 
1 0.998171 0.99649 0.995093 0.994094 0.993573 0.993573 0.994094 0.995093 0.99649 0.998171 1 
1 0.998171 0.99649 0.995093 0.994094 0.993573 0.993573 0.994094 0.995093 0.99649 0.998171 1 
1 0.998319 0.996774 0.995491 0.994573 0.994094 0.994094 0.994573 0.995491 0.996774 0.998319 1 
1 0.998603 0.99732 0.996254 0.995491 0.995093 0.995093 0.995491 0.996254 0.99732 0.998603 1 
1 0.999001 0.998083 0.99732 0.996774 0.99649 0.99649 0.996774 0.99732 0.998083 0.999001 1 
1 0.999479 0.999001 0.998603 0.998319 0.998171 0.998171 0.998319 0.998603 0.999001 0.999479 1 
1 1 1 1 1 1 1 1 1 1 1 1 

