# vtk DataFile Version 3.0
cell
ASCII
DATASET STRUCTURED_POINTS
DIMENSIONS 12 12 1
ORIGIN 0 0 0
SPACING 1 1 1
POINT_DATA 144
SCALARS cell double
LOOKUP_TABLE default
1 1 1 1 1 1 1 1 1 1 1 1 
1 0.99401 0.988505 0.983931 0.980659 0.978954 0.978954 0.980659 0.983931 0.988505 0.99401 1 
1 0.988505 0.977941 0.969164 0.962886 0.959614 0.959614 0.962886 0.969164 0.977941 0.988505 1 
1 0.983931 0.969164 0.956896 0.948119 0.943546 0.943546 0.948119 0.956896 0.969164 0.983931 1 
1 0.980659 0.962886 0.948119 0.937555 0.932051 0.932051 0.937555 0.948119 0.962886 0.980659 1 
1 0.978954 0.959614 0.943546 0.932051 0.926061 0.926061 0.932051 0.943546 0.959614 0.978954 1 
1 0.978954 0.959614 0.943546 0.932051 0.926061 0.926061 0.932051 0.943546 0.959614 0.978954 1 
1 0.980659 0.962886 0.948119 0.937555 0.932051 0.932051 0.937555 0.948119 0.962886 0.980659 1 
1 0.983931 0.969164 0.956896 0.948119 0.943546 0.943546 0.948119 0.956896 0.969164 0.983931 1 
1 0.988505 0.977941 0.969164 0.962886 0.959614 0.959614 0.962886 0.969164 0.977941 0.988505 1 
1 0.99401 0.988505 0.983931 0.980659 0.978954 0.978954 0.980659 0.983931 0.988505 0.99401 1 
1 1 1 1 1 1 1 1 1 1 1 1 

