# vtk DataFile Version 3.0
cell
ASCII
DATASET STRUCTURED_POINTS
DIMENSIONS 12 12 1
ORIGIN 0 0 0
SPACING 1 1 1
POINT_DATA 144
SCALARS cell double
LOOKUP_TABLE default
1 1 1 1 1 1 1 1 1 1 1 1 
1 0.999978 0.999957 0.99994 0.999928 0.999922 0.999922 0.999928 0.99994 0.999957 0.999978 1 
1 0.999957 0.999918 0.999886 0.999862 0.99985 0.99985 0.999862 0.999886 0.999918 0.999957 1 
1 0.99994 0.999886 0.99984 0.999808 0.999791 0.999791 0.999808 0.99984 0.999886 0.99994 1 
1 0.999928 0.999862 0.999808 0.999769 0.999748 0.999748 0.999769 0.999808 0.999862 0.999928 1 
1 0.999922 0.99985 0.999791 0.999748 0.999726 0.999726 0.999748 0.999791 0.99985 0.999922 1 
1 0.999922 0.99985 0.999791 0.999748 0.999726 0.999726 0.999748 0.999791 0.99985 0.999922 1 
1 0.999928 0.999862 0.999808 0.999769 0.999748 0.999748 0.999769 0.999808 0.999862 0.999928 1 
1 0.99994 0.999886 0.99984 0.999808 0.999791 0.999791 0.999808 0.99984 0.999886 0.99994 1 
1 0.999957 0.999918 0.999886 0.999862 0.99985 0.99985 0.999862 0.999886 0.999918 0.999957 1 
1 0.999978 0.999957 0.99994 0.999928 0.999922 0.999922 0.999928 0.99994 0.999957 0.999978 1 
1 1 1 1 1 1 1 1 1 1 1 1 

