# vtk DataFile Version 3.0
cell
ASCII
DATASET STRUCTURED_POINTS
DIMENSIONS 12 12 1
ORIGIN 0 0 0
SPACING 1 1 1
POINT_DATA 144
SCALARS cell double
LOOKUP_TABLE default
1 1 1 1 1 1 1 1 1 1 1 1 
1 0.999731 0.999484 0.999279 0.999133 0.999056 0.999056 0.999133 0.999279 0.999484 0.999731 1 
1 0.999484 0.999011 0.998617 0.998335 0.998189 0.998189 0.998335 0.998617 0.999011 0.999484 1 
1 0.999279 0.998617 0.998067 0.997673 0.997468 0.997468 0.997673 0.998067 0.998617 0.999279 1 
1 0.999133 0.998335 0.997673 0.997199 0.996952 0.996952 0.997199 0.997673 0.998335 0.999133 1 
1 0.999056 0.998189 0.997468 0.996952 0.996684 0.996684 0.996952 0.997468 0.998189 0.999056 1 
1 0.999056 0.998189 0.997468 0.996952 0.996684 0.996684 0.996952 0.997468 0.998189 0.999056 1 
1 0.999133 0.998335 0.997673 0.997199 0.996952 0.996952 0.997199 0.997673 0.998335 0.999133 1 
1 0.999279 0.998617 0.998067 0.997673 0.997468 0.997468 0.997673 0.998067 0.998617 0.999279 1 
1 0.999484 0.999011 0.998617 0.998335 0.998189 0.998189 0.998335 0.998617 0.999011 0.999484 1 
1 0.999731 0.999484 0.999279 0.999133 0.999056 0.999056 0.999133 0.999279 0.999484 0.999731 1 
1 1 1 1 1 1 1 1 1 1 1 1 

