# vtk DataFile Version 3.0
cell
ASCII
DATASET STRUCTURED_POINTS
DIMENSIONS 12 12 1
ORIGIN 0 0 0
SPACING 1 1 1
POINT_DATA 144
SCALARS cell double
LOOKUP_TABLE default
1 1 1 1 1 1 1 1 1 1 1 1 
1 0.999505 0.99905 0.998673 0.998402 0.998262 0.998262 0.998402 0.998673 0.99905 0.999505 1 
1 0.99905 0.998178 0.997453 0.996934 0.996664 0.996664 0.996934 0.997453 0.998178 0.99905 1 
1 0.998673 0.997453 0.996439 0.995714 0.995337 0.995337 0.995714 0.996439 0.997453 0.998673 1 
1 0.998402 0.996934 0.995714 0.994842 0.994387 0.994387 0.994842 0.995714 0.996934 0.998402 1 
1 0.998262 0.996664 0.995337 0.994387 0.993892 0.993892 0.994387 0.995337 0.996664 0.998262 1 
1 0.998262 0.996664 0.995337 0.994387 0.993892 0.993892 0.994387 0.995337 0.996664 0.998262 1 
1 0.998402 0.996934 0.995714 0.994842 0.994387 0.994387 0.994842 0.995714 0.996934 0.998402 1 
1 0.998673 0.997453 0.996439 0.995714 0.995337 0.995337 0.995714 0.996439 0.997453 0.998673 1 
1 0.99905 0.998178 0.997453 0.996934 0.996664 0.996664 0.996934 0.997453 0.998178 0.99905 1 
1 0.999505 0.99905 0.998673 0.998402 0.998262 0.998262 0.998402 0.998673 0.99905 0.999505 1 
1 1 1 1 1 1 1 1 1 1 1 1 

