# vtk DataFile Version 3.0
cell
ASCII
DATASET STRUCTURED_POINTS
DIMENSIONS 12 12 1
ORIGIN 0 0 0
SPACING 1 1 1
POINT_DATA 144
SCALARS cell double
LOOKUP_TABLE default
1 1 1 1 1 1 1 1 1 1 1 1 
1 0.999965 0.999933 0.999906 0.999887 0.999877 0.999877 0.999887 0.999906 0.999933 0.999965 1 
1 0.999933 0.999871 0.999819 0.999783 0.999763 0.999763 0.999783 0.999819 0.999871 0.999933 1 
1 0.999906 0.999819 0.999748 0.999696 0.999669 0.999669 0.999696 0.999748 0.999819 0.999906 1 
1 0.999887 0.999783 0.999696 0.999634 0.999602 0.999602 0.999634 0.999696 0.999783 0.999887 1 
1 0.999877 0.999763 0.999669 0.999602 0.999567 0.999567 0.999602 0.999669 0.999763 0.999877 1 
1 0.999877 0.999763 0.999669 0.999602 0.999567 0.999567 0.999602 0.999669 0.999763 0.999877 1 
1 0.999887 0.999783 0.999696 0.999634 0.999602 0.999602 0.999634 0.999696 0.999783 0.999887 1 
1 0.999906 0.999819 0.999748 0.999696 0.999669 0.999669 0.999696 0.999748 0.999819 0.999906 1 
1 0.999933 0.999871 0.999819 0.999783 0.999763 0.999763 0.999783 0.999819 0.999871 0.999933 1 
1 0.999965 0.999933 0.999906 0.999887 0.999877 0.999877 0.999887 0.999906 0.999933 0.999965 1 
1 1 1 1 1 1 1 1 1 1 1 1 

