# vtk DataFile Version 3.0
cell
ASCII
DATASET STRUCTURED_POINTS
DIMENSIONS 12 12 1
ORIGIN 0 0 0
SPACING 1 1 1
POINT_DATA 144
SCALARS cell double
LOOKUP_TABLE default
1 1 1 1 1 1 1 1 1 1 1 1 
1 0.992657 0.985909 0.980303 0.976293 0.974203 0.974203 0.976293 0.980303 0.985909 0.992657 1 
1 0.985909 0.972961 0.962202 0.954506 0.950496 0.950496 0.954506 0.962202 0.972961 0.985909 1 
1 0.980303 0.962202 0.947164 0.936406 0.9308 0.9308 0.936406 0.947164 0.962202 0.980303 1 
1 0.976293 0.954506 0.936406 0.923458 0.91671 0.91671 0.923458 0.936406 0.954506 0.976293 1 
1 0.974203 0.950496 0.9308 0.91671 0.909368 0.909368 0.91671 0.9308 0.950496 0.974203 1 
1 0.974203 0.950496 0.9308 0.91671 0.909368 0.909368 0.91671 0.9308 0.950496 0.974203 1 
1 0.976293 0.954506 0.936406 0.923458 0.91671 0.91671 0.923458 0.936406 0.954506 0.976293 1 
1 0.980303 0.962202 0.947164 0.936406 0.9308 0.9308 0.936406 0.947164 0.962202 0.980303 1 
1 0.985909 0.972961 0.962202 0.954506 0.950496 0.950496 0.954506 0.962202 0.972961 0.985909 1 
1 0.992657 0.985909 0.980303 0.976293 0.974203 0.974203 0.976293 0.980303 0.985909 0.992657 1 
1 1 1 1 1 1 1 1 1 1 1 1 

