# vtk DataFile Version 3.0
cell
ASCII
DATASET STRUCTURED_POINTS
DIMENSIONS 12 12 1
ORIGIN 0 0 0
SPACING 1 1 1
POINT_DATA 144
SCALARS cell double
LOOKUP_TABLE default
1 1 1 1 1 1 1 1 1 1 1 1 
1 0.987145 0.975332 0.965519 0.9585 0.954843 0.954843 0.9585 0.965519 0.975332 0.987145 1 
1 0.975332 0.952665 0.933834 0.920366 0.913348 0.913348 0.920366 0.933834 0.952665 0.975332 1 
1 0.965519 0.933834 0.907513 0.888687 0.878877 0.878877 0.888687 0.907513 0.933834 0.965519 1 
1 0.9585 0.920366 0.888687 0.866028 0.854222 0.854222 0.866028 0.888687 0.920366 0.9585 1 
1 0.954843 0.913348 0.878877 0.854222 0.841375 0.841375 0.854222 0.878877 0.913348 0.954843 1 
1 0.954843 0.913348 0.878877 0.854222 0.841375 0.841375 0.854222 0.878877 0.913348 0.954843 1 
1 0.9585 0.920366 0.888687 0.866028 0.854222 0.854222 0.866028 0.888687 0.920366 0.9585 1 
1 0.965519 0.933834 0.907513 0.888687 0.878877 0.878877 0.888687 0.907513 0.933834 0.965519 1 
1 0.975332 0.952665 0.933834 0.920366 0.913348 0.913348 0.920366 0.933834 0.952665 0.975332 1 
1 0.987145 0.975332 0.965519 0.9585 0.954843 0.954843 0.9585 0.965519 0.975332 0.987145 1 
1 1 1 1 1 1 1 1 1 1 1 1 

