# vtk DataFile Version 3.0
cell
ASCII
DATASET STRUCTURED_POINTS
DIMENSIONS 12 12 1
ORIGIN 0 0 0
SPACING 1 1 1
POINT_DATA 144
SCALARS cell double
LOOKUP_TABLE default
1 1 1 1 1 1 1 1 1 1 1 1 
1 0.999942 0.999888 0.999843 0.999812 0.999795 0.999795 0.999812 0.999843 0.999888 0.999942 1 
1 0.999888 0.999785 0.9997 0.999638 0.999607 0.999607 0.999638 0.9997 0.999785 0.999888 1 
1 0.999843 0.9997 0.99958 0.999495 0.99945 0.99945 0.999495 0.99958 0.9997 0.999843 1 
1 0.999812 0.999638 0.999495 0.999392 0.999338 0.999338 0.999392 0.999495 0.999638 0.999812 1 
1 0.999795 0.999607 0.99945 0.999338 0.99928 0.99928 0.999338 0.99945 0.999607 0.999795 1 
1 0.999795 0.999607 0.99945 0.999338 0.99928 0.99928 0.999338 0.99945 0.999607 0.999795 1 
1 0.999812 0.999638 0.999495 0.999392 0.999338 0.999338 0.999392 0.999495 0.999638 0.999812 1 
1 0.999843 0.9997 0.99958 0.999495 0.99945 0.99945 0.999495 0.99958 0.9997 0.999843 1 
1 0.999888 0.999785 0.9997 0.999638 0.999607 0.999607 0.999638 0.9997 0.999785 0.999888 1 
1 0.999942 0.999888 0.999843 0.999812 0.999795 0.999795 0.999812 0.999843 0.999888 0.999942 1 
1 1 1 1 1 1 1 1 1 1 1 1 

