# vtk DataFile Version 3.0
cell
ASCII
DATASET STRUCTURED_POINTS
DIMENSIONS 12 12 1
ORIGIN 0 0 0
SPACING 1 1 1
POINT_DATA 144
SCALARS cell double
LOOKUP_TABLE default
1 1 1 1 1 1 1 1 1 1 1 1 
1 0.999218 0.998499 0.997902 0.997474 0.997252 0.997252 0.997474 0.997902 0.998499 0.999218 1 
1 0.998499 0.997119 0.995973 0.995153 0.994726 0.994726 0.995153 0.995973 0.997119 0.998499 1 
1 0.997902 0.995973 0.994371 0.993225 0.992627 0.992627 0.993225 0.994371 0.995973 0.997902 1 
1 0.997474 0.995153 0.993225 0.991845 0.991126 0.991126 0.991845 0.993225 0.995153 0.997474 1 
1 0.997252 0.994726 0.992627 0.991126 0.990344 0.990344 0.991126 0.992627 0.994726 0.997252 1 
1 0.997252 0.994726 0.992627 0.991126 0.990344 0.990344 0.991126 0.992627 0.994726 0.997252 1 
1 0.997474 0.995153 0.993225 0.991845 0.991126 0.991126 0.991845 0.993225 0.995153 0.997474 1 
1 0.997902 0.995973 0.994371 0.993225 0.992627 0.992627 0.993225 0.994371 0.995973 0.997902 1 
1 0.998499 0.997119 0.995973 0.995153 0.994726 0.994726 0.995153 0.995973 0.997119 0.998499 1 
1 0.999218 0.998499 0.997902 0.997474 0.997252 0.997252 0.997474 0.997902 0.998499 0.999218 1 
1 1 1 1 1 1 1 1 1 1 1 1 

