# vtk DataFile Version 3.0
cell
ASCII
DATASET STRUCTURED_POINTS
DIMENSIONS 12 12 1
ORIGIN 0 0 0
SPACING 1 1 1
POINT_DATA 144
SCALARS cell double
LOOKUP_TABLE default
1 1 1 1 1 1 1 1 1 1 1 1 
1 0.962007 0.927266 0.898648 0.878365 0.867871 0.867871 0.878365 0.898648 0.927266 0.962007 1 
1 0.927266 0.860761 0.805974 0.767145 0.747057 0.747057 0.767145 0.805974 0.860761 0.927266 1 
1 0.898648 0.805974 0.72963 0.675525 0.647532 0.647532 0.675525 0.72963 0.805974 0.898648 1 
1 0.878365 0.767145 0.675525 0.610592 0.576998 0.576998 0.610592 0.675525 0.767145 0.878365 1 
1 0.867871 0.747057 0.647532 0.576998 0.540506 0.540506 0.576998 0.647532 0.747057 0.867871 1 
1 0.867871 0.747057 0.647532 0.576998 0.540506 0.540506 0.576998 0.647532 0.747057 0.867871 1 
1 0.878365 0.767145 0.675525 0.610592 0.576998 0.576998 0.610592 0.675525 0.767145 0.878365 1 
1 0.898648 0.805974 0.72963 0.675525 0.647532 0.647532 0.675525 0.72963 0.805974 0.898648 1 
1 0.927266 0.860761 0.805974 0.767145 0.747057 0.747057 0.767145 0.805974 0.860761 0.927266 1 
1 0.962007 0.927266 0.898648 0.878365 0.867871 0.867871 0.878365 0.898648 0.927266 0.962007 1 
1 1 1 1 1 1 1 1 1 1 1 1 

