# vtk DataFile Version 3.0
cell
ASCII
DATASET STRUCTURED_POINTS
DIMENSIONS 12 12 1
ORIGIN 0 0 0
SPACING 1 1 1
POINT_DATA 144
SCALARS cell double
LOOKUP_TABLE default
1 1 1 1 1 1 1 1 1 1 1 1 
1 0.999921 0.999848 0.999788 0.999744 0.999722 0.999722 0.999744 0.999788 0.999848 0.999921 1 
1 0.999848 0.999708 0.999592 0.999509 0.999466 0.999466 0.999509 0.999592 0.999708 0.999848 1 
1 0.999788 0.999592 0.99943 0.999314 0.999254 0.999254 0.999314 0.99943 0.999592 0.999788 1 
1 0.999744 0.999509 0.999314 0.999174 0.999102 0.999102 0.999174 0.999314 0.999509 0.999744 1 
1 0.999722 0.999466 0.999254 0.999102 0.999022 0.999022 0.999102 0.999254 0.999466 0.999722 1 
1 0.999722 0.999466 0.999254 0.999102 0.999022 0.999022 0.999102 0.999254 0.999466 0.999722 1 
1 0.999744 0.999509 0.999314 0.999174 0.999102 0.999102 0.999174 0.999314 0.999509 0.999744 1 
1 0.999788 0.999592 0.99943 0.999314 0.999254 0.999254 0.999314 0.99943 0.999592 0.999788 1 
1 0.999848 0.999708 0.999592 0.999509 0.999466 0.999466 0.999509 0.999592 0.999708 0.999848 1 
1 0.999921 0.999848 0.999788 0.999744 0.999722 0.999722 0.999744 0.999788 0.999848 0.999921 1 
1 1 1 1 1 1 1 1 1 1 1 1 

