# vtk DataFile Version 3.0
cell
ASCII
DATASET STRUCTURED_POINTS
DIMENSIONS 12 12 1
ORIGIN 0 0 0
SPACING 1 1 1
POINT_DATA 144
SCALARS cell double
LOOKUP_TABLE default
1 1 1 1 1 1 1 1 1 1 1 1 
1 0.999861 0.999734 0.999628 0.999552 0.999513 0.999513 0.999552 0.999628 0.999734 0.999861 1 
1 0.999734 0.999489 0.999286 0.999141 0.999065 0.999065 0.999141 0.999286 0.999489 0.999734 1 
1 0.999628 0.999286 0.999002 0.998799 0.998693 0.998693 0.998799 0.999002 0.999286 0.999628 1 
1 0.999552 0.999141 0.998799 0.998555 0.998427 0.998427 0.998555 0.998799 0.999141 0.999552 1 
1 0.999513 0.999065 0.998693 0.998427 0.998289 0.998289 0.998427 0.998693 0.999065 0.999513 1 
1 0.999513 0.999065 0.998693 0.998427 0.998289 0.998289 0.998427 0.998693 0.999065 0.999513 1 
1 0.999552 0.999141 0.998799 0.998555 0.998427 0.998427 0.998555 0.998799 0.999141 0.999552 1 
1 0.999628 0.999286 0.999002 0.998799 0.998693 0.998693 0.998799 0.999002 0.999286 0.999628 1 
1 0.999734 0.999489 0.999286 0.999141 0.999065 0.999065 0.999141 0.999286 0.999489 0.999734 1 
1 0.999861 0.999734 0.999628 0.999552 0.999513 0.999513 0.999552 0.999628 0.999734 0.999861 1 
1 1 1 1 1 1 1 1 1 1 1 1 

