# vtk DataFile Version 3.0
cell
ASCII
DATASET STRUCTURED_POINTS
DIMENSIONS 12 12 1
ORIGIN 0 0 0
SPACING 1 1 1
POINT_DATA 144
SCALARS cell double
LOOKUP_TABLE default
1 1 1 1 1 1 1 1 1 1 1 1 
1 0.999955 0.999913 0.999879 0.999854 0.999841 0.999841 0.999854 0.999879 0.999913 0.999955 1 
1 0.999913 0.999833 0.999767 0.99972 0.999695 0.999695 0.99972 0.999767 0.999833 0.999913 1 
1 0.999879 0.999767 0.999674 0.999608 0.999574 0.999574 0.999608 0.999674 0.999767 0.999879 1 
1 0.999854 0.99972 0.999608 0.999528 0.999487 0.999487 0.999528 0.999608 0.99972 0.999854 1 
1 0.999841 0.999695 0.999574 0.999487 0.999441 0.999441 0.999487 0.999574 0.999695 0.999841 1 
1 0.999841 0.999695 0.999574 0.999487 0.999441 0.999441 0.999487 0.999574 0.999695 0.999841 1 
1 0.999854 0.99972 0.999608 0.999528 0.999487 0.999487 0.999528 0.999608 0.99972 0.999854 1 
1 0.999879 0.999767 0.999674 0.999608 0.999574 0.999574 0.999608 0.999674 0.999767 0.999879 1 
1 0.999913 0.999833 0.999767 0.99972 0.999695 0.999695 0.99972 0.999767 0.999833 0.999913 1 
1 0.999955 0.999913 0.999879 0.999854 0.999841 0.999841 0.999854 0.999879 0.999913 0.999955 1 
1 1 1 1 1 1 1 1 1 1 1 1 

