# vtk DataFile Version 3.0
cell
ASCII
DATASET STRUCTURED_POINTS
DIMENSIONS 12 12 1
ORIGIN 0 0 0
SPACING 1 1 1
POINT_DATA 144
SCALARS cell double
LOOKUP_TABLE default
1 1 1 1 1 1 1 1 1 1 1 1 
1 0.993697 0.987905 0.983092 0.97965 0.977856 0.977856 0.97965 0.983092 0.987905 0.993697 1 
1 0.987905 0.976789 0.967554 0.960948 0.957506 0.957506 0.960948 0.967554 0.976789 0.987905 1 
1 0.983092 0.967554 0.954645 0.94541 0.940598 0.940598 0.94541 0.954645 0.967554 0.983092 1 
1 0.97965 0.960948 0.94541 0.934295 0.928503 0.928503 0.934295 0.94541 0.960948 0.97965 1 
1 0.977856 0.957506 0.940598 0.928503 0.9222 0.9222 0.928503 0.940598 0.957506 0.977856 1 
1 0.977856 0.957506 0.940598 0.928503 0.9222 0.9222 0.928503 0.940598 0.957506 0.977856 1 
1 0.97965 0.960948 0.94541 0.934295 0.928503 0.928503 0.934295 0.94541 0.960948 0.97965 1 
1 0.983092 0.967554 0.954645 0.94541 0.940598 0.940598 0.94541 0.954645 0.967554 0.983092 1 
1 0.987905 0.976789 0.967554 0.960948 0.957506 0.957506 0.960948 0.967554 0.976789 0.987905 1 
1 0.993697 0.987905 0.983092 0.97965 0.977856 0.977856 0.97965 0.983092 0.987905 0.993697 1 
1 1 1 1 1 1 1 1 1 1 1 1 

