# vtk DataFile Version 3.0
cell
ASCII
DATASET STRUCTURED_POINTS
DIMENSIONS 12 12 1
ORIGIN 0 0 0
SPACING 1 1 1
POINT_DATA 144
SCALARS cell double
LOOKUP_TABLE default
1 1 1 1 1 1 1 1 1 1 1 1 
1 0.97082 0.944055 0.921889 0.906087 0.897874 0.897874 0.906087 0.921889 0.944055 0.97082 1 
1 0.944055 0.89274 0.850241 0.819945 0.804199 0.804199 0.819945 0.850241 0.89274 0.944055 1 
1 0.921889 0.850241 0.790904 0.748604 0.726619 0.726619 0.748604 0.790904 0.850241 0.921889 1 
1 0.906087 0.819945 0.748604 0.697746 0.671314 0.671314 0.697746 0.748604 0.819945 0.906087 1 
1 0.897874 0.804199 0.726619 0.671314 0.642571 0.642571 0.671314 0.726619 0.804199 0.897874 1 
1 0.897874 0.804199 0.726619 0.671314 0.642571 0.642571 0.671314 0.726619 0.804199 0.897874 1 
1 0.906087 0.819945 0.748604 0.697746 0.671314 0.671314 0.697746 0.748604 0.819945 0.906087 1 
1 0.921889 0.850241 0.790904 0.748604 0.726619 0.726619 0.748604 0.790904 0.850241 0.921889 1 
1 0.944055 0.89274 0.850241 0.819945 0.804199 0.804199 0.819945 0.850241 0.89274 0.944055 1 
1 0.97082 0.944055 0.921889 0.906087 0.897874 0.897874 0.906087 0.921889 0.944055 0.97082 1 
1 1 1 1 1 1 1 1 1 1 1 1 

