# vtk DataFile Version 3.0
cell
ASCII
DATASET STRUCTURED_POINTS
DIMENSIONS 12 12 1
ORIGIN 0 0 0
SPACING 1 1 1
POINT_DATA 144
SCALARS cell double
LOOKUP_TABLE default
1 1 1 1 1 1 1 1 1 1 1 1 
1 0.998991 0.998064 0.997294 0.996742 0.996455 0.996455 0.996742 0.997294 0.998064 0.998991 1 
1 0.998064 0.996285 0.994806 0.993749 0.993198 0.993198 0.993749 0.994806 0.996285 0.998064 1 
1 0.997294 0.994806 0.99274 0.991262 0.990491 0.990491 0.991262 0.99274 0.994806 0.997294 1 
1 0.996742 0.993749 0.991262 0.989482 0.988555 0.988555 0.989482 0.991262 0.993749 0.996742 1 
1 0.996455 0.993198 0.990491 0.988555 0.987546 0.987546 0.988555 0.990491 0.993198 0.996455 1 
1 0.996455 0.993198 0.990491 0.988555 0.987546 0.987546 0.988555 0.990491 0.993198 0.996455 1 
1 0.996742 0.993749 0.991262 0.989482 0.988555 0.988555 0.989482 0.991262 0.993749 0.996742 1 
1 0.997294 0.994806 0.99274 0.991262 0.990491 0.990491 0.991262 0.99274 0.994806 0.997294 1 
1 0.998064 0.996285 0.994806 0.993749 0.993198 0.993198 0.993749 0.994806 0.996285 0.998064 1 
1 0.998991 0.998064 0.997294 0.996742 0.996455 0.996455 0.996742 0.997294 0.998064 0.998991 1 
1 1 1 1 1 1 1 1 1 1 1 1 

