# vtk DataFile Version 3.0
cell
ASCII
DATASET STRUCTURED_POINTS
DIMENSIONS 12 12 1
ORIGIN 0 0 0
SPACING 1 1 1
POINT_DATA 144
SCALARS cell double
LOOKUP_TABLE default
1 1 1 1 1 1 1 1 1 1 1 1 
1 0.999975 0.999953 0.999934 0.999921 0.999914 0.999914 0.999921 0.999934 0.999953 0.999975 1 
1 0.999953 0.99991 0.999874 0.999848 0.999834 0.999834 0.999848 0.999874 0.99991 0.999953 1 
1 0.999934 0.999874 0.999823 0.999787 0.999768 0.999768 0.999787 0.999823 0.999874 0.999934 1 
1 0.999921 0.999848 0.999787 0.999744 0.999721 0.999721 0.999744 0.999787 0.999848 0.999921 1 
1 0.999914 0.999834 0.999768 0.999721 0.999697 0.999697 0.999721 0.999768 0.999834 0.999914 1 
1 0.999914 0.999834 0.999768 0.999721 0.999697 0.999697 0.999721 0.999768 0.999834 0.999914 1 
1 0.999921 0.999848 0.999787 0.999744 0.999721 0.999721 0.999744 0.999787 0.999848 0.999921 1 
1 0.999934 0.999874 0.999823 0.999787 0.999768 0.999768 0.999787 0.999823 0.999874 0.999934 1 
1 0.999953 0.99991 0.999874 0.999848 0.999834 0.999834 0.999848 0.999874 0.99991 0.999953 1 
1 0.999975 0.999953 0.999934 0.999921 0.999914 0.999914 0.999921 0.999934 0.999953 0.999975 1 
1 1 1 1 1 1 1 1 1 1 1 1 

