# vtk DataFile Version 3.0
cell
ASCII
DATASET STRUCTURED_POINTS
DIMENSIONS 12 12 1
ORIGIN 0 0 0
SPACING 1 1 1
POINT_DATA 144
SCALARS cell double
LOOKUP_TABLE default
1 1 1 1 1 1 1 1 1 1 1 1 
1 0.912461 0.836905 0.780776 0.7456 0.729181 0.729181 0.7456 0.780776 0.836905 0.912461 1 
1 0.836905 0.696161 0.591633 0.526151 0.495596 0.495596 0.526151 0.591633 0.696161 0.836905 1 
1 0.780776 0.591633 0.451215 0.363293 0.322284 0.322284 0.363293 0.451215 0.591633 0.780776 1 
1 0.7456 0.526151 0.363293 0.261365 0.213844 0.213844 0.261365 0.363293 0.526151 0.7456 1 
1 0.729181 0.495596 0.322284 0.213844 0.163298 0.163298 0.213844 0.322284 0.495596 0.729181 1 
1 0.729181 0.495596 0.322284 0.213844 0.163298 0.163298 0.213844 0.322284 0.495596 0.729181 1 
1 0.7456 0.526151 0.363293 0.261365 0.213844 0.213844 0.261365 0.363293 0.526151 0.7456 1 
1 0.780776 0.591633 0.451215 0.363293 0.322284 0.322284 0.363293 0.451215 0.591633 0.780776 1 
1 0.836905 0.696161 0.591633 0.526151 0.495596 0.495596 0.526151 0.591633 0.696161 0.836905 1 
1 0.912461 0.836905 0.780776 0.7456 0.729181 0.729181 0.7456 0.780776 0.836905 0.912461 1 
1 1 1 1 1 1 1 1 1 1 1 1 

