# vtk DataFile Version 3.0
cell
ASCII
DATASET STRUCTURED_POINTS
DIMENSIONS 12 12 1
ORIGIN 0 0 0
SPACING 1 1 1
POINT_DATA 144
SCALARS cell double
LOOKUP_TABLE default
1 1 1 1 1 1 1 1 1 1 1 1 
1 0.98839 0.977721 0.968858 0.962518 0.959214 0.959214 0.962518 0.968858 0.977721 0.98839 1 
1 0.977721 0.957248 0.94024 0.928074 0.921735 0.921735 0.928074 0.94024 0.957248 0.977721 1 
1 0.968858 0.94024 0.916466 0.89946 0.890599 0.890599 0.89946 0.916466 0.94024 0.968858 1 
1 0.962518 0.928074 0.89946 0.878992 0.868327 0.868327 0.878992 0.89946 0.928074 0.962518 1 
1 0.959214 0.921735 0.890599 0.868327 0.856722 0.856722 0.868327 0.890599 0.921735 0.959214 1 
1 0.959214 0.921735 0.890599 0.868327 0.856722 0.856722 0.868327 0.890599 0.921735 0.959214 1 
1 0.962518 0.928074 0.89946 0.878992 0.868327 0.868327 0.878992 0.89946 0.928074 0.962518 1 
1 0.968858 0.94024 0.916466 0.89946 0.890599 0.890599 0.89946 0.916466 0.94024 0.968858 1 
1 0.977721 0.957248 0.94024 0.928074 0.921735 0.921735 0.928074 0.94024 0.957248 0.977721 1 
1 0.98839 0.977721 0.968858 0.962518 0.959214 0.959214 0.962518 0.968858 0.977721 0.98839 1 
1 1 1 1 1 1 1 1 1 1 1 1 

