# vtk DataFile Version 3.0
cell
ASCII
DATASET STRUCTURED_POINTS
DIMENSIONS 12 12 1
ORIGIN 0 0 0
SPACING 1 1 1
POINT_DATA 144
SCALARS cell double
LOOKUP_TABLE default
1 1 1 1 1 1 1 1 1 1 1 1 
1 0.999887 0.999783 0.999697 0.999635 0.999603 0.999603 0.999635 0.999697 0.999783 0.999887 1 
1 0.999783 0.999583 0.999418 0.999299 0.999237 0.999237 0.999299 0.999418 0.999583 0.999783 1 
1 0.999697 0.999418 0.999186 0.99902 0.998934 0.998934 0.99902 0.999186 0.999418 0.999697 1 
1 0.999635 0.999299 0.99902 0.998821 0.998717 0.998717 0.998821 0.99902 0.999299 0.999635 1 
1 0.999603 0.999237 0.998934 0.998717 0.998604 0.998604 0.998717 0.998934 0.999237 0.999603 1 
1 0.999603 0.999237 0.998934 0.998717 0.998604 0.998604 0.998717 0.998934 0.999237 0.999603 1 
1 0.999635 0.999299 0.99902 0.998821 0.998717 0.998717 0.998821 0.99902 0.999299 0.999635 1 
1 0.999697 0.999418 0.999186 0.99902 0.998934 0.998934 0.99902 0.999186 0.999418 0.999697 1 
1 0.999783 0.999583 0.999418 0.999299 0.999237 0.999237 0.999299 0.999418 0.999583 0.999783 1 
1 0.999887 0.999783 0.999697 0.999635 0.999603 0.999603 0.999635 0.999697 0.999783 0.999887 1 
1 1 1 1 1 1 1 1 1 1 1 1 

