# vtk DataFile Version 3.0
cell
ASCII
DATASET STRUCTURED_POINTS
DIMENSIONS 12 12 1
ORIGIN 0 0 0
SPACING 1 1 1
POINT_DATA 144
SCALARS cell double
LOOKUP_TABLE default
1 1 1 1 1 1 1 1 1 1 1 1 
1 0.999671 0.999368 0.999117 0.998937 0.998843 0.998843 0.998937 0.999117 0.999368 0.999671 1 
1 0.999368 0.998787 0.998305 0.99796 0.99778 0.99778 0.99796 0.998305 0.998787 0.999368 1 
1 0.999117 0.998305 0.99763 0.997148 0.996896 0.996896 0.997148 0.99763 0.998305 0.999117 1 
1 0.998937 0.99796 0.997148 0.996567 0.996264 0.996264 0.996567 0.997148 0.99796 0.998937 1 
1 0.998843 0.99778 0.996896 0.996264 0.995935 0.995935 0.996264 0.996896 0.99778 0.998843 1 
1 0.998843 0.99778 0.996896 0.996264 0.995935 0.995935 0.996264 0.996896 0.99778 0.998843 1 
1 0.998937 0.99796 0.997148 0.996567 0.996264 0.996264 0.996567 0.997148 0.99796 0.998937 1 
1 0.999117 0.998305 0.99763 0.997148 0.996896 0.996896 0.997148 0.99763 0.998305 0.999117 1 
1 0.999368 0.998787 0.998305 0.99796 0.99778 0.99778 0.99796 0.998305 0.998787 0.999368 1 
1 0.999671 0.999368 0.999117 0.998937 0.998843 0.998843 0.998937 0.999117 0.999368 0.999671 1 
1 1 1 1 1 1 1 1 1 1 1 1 

