# vtk DataFile Version 3.0
cell
ASCII
DATASET STRUCTURED_POINTS
DIMENSIONS 12 12 1
ORIGIN 0 0 0
SPACING 1 1 1
POINT_DATA 144
SCALARS cell double
LOOKUP_TABLE default
1 1 1 1 1 1 1 1 1 1 1 1 
1 0.999993 0.999987 0.999982 0.999978 0.999976 0.999976 0.999978 0.999982 0.999987 0.999993 1 
1 0.999987 0.999975 0.999965 0.999957 0.999954 0.999954 0.999957 0.999965 0.999975 0.999987 1 
1 0.999982 0.999965 0.99995 0.99994 0.999935 0.999935 0.99994 0.99995 0.999965 0.999982 1 
1 0.999978 0.999957 0.99994 0.999928 0.999922 0.999922 0.999928 0.99994 0.999957 0.999978 1 
1 0.999976 0.999954 0.999935 0.999922 0.999915 0.999915 0.999922 0.999935 0.999954 0.999976 1 
1 0.999976 0.999954 0.999935 0.999922 0.999915 0.999915 0.999922 0.999935 0.999954 0.999976 1 
1 0.999978 0.999957 0.99994 0.999928 0.999922 0.999922 0.999928 0.99994 0.999957 0.999978 1 
1 0.999982 0.999965 0.99995 0.99994 0.999935 0.999935 0.99994 0.99995 0.999965 0.999982 1 
1 0.999987 0.999975 0.999965 0.999957 0.999954 0.999954 0.999957 0.999965 0.999975 0.999987 1 
1 0.999993 0.999987 0.999982 0.999978 0.999976 0.999976 0.999978 0.999982 0.999987 0.999993 1 
1 1 1 1 1 1 1 1 1 1 1 1 

