# vtk DataFile Version 3.0
cell
ASCII
DATASET STRUCTURED_POINTS
DIMENSIONS 12 12 1
ORIGIN 0 0 0
SPACING 1 1 1
POINT_DATA 144
SCALARS cell double
LOOKUP_TABLE default
1 1 1 1 1 1 1 1 1 1 1 1 
1 0.999293 0.998644 0.998105 0.997719 0.997518 0.997518 0.997719 0.998105 0.998644 0.999293 1 
1 0.998644 0.997398 0.996363 0.995622 0.995236 0.995236 0.995622 0.996363 0.997398 0.998644 1 
1 0.998105 0.996363 0.994916 0.99388 0.993341 0.993341 0.99388 0.994916 0.996363 0.998105 1 
1 0.997719 0.995622 0.99388 0.992634 0.991985 0.991985 0.992634 0.99388 0.995622 0.997719 1 
1 0.997518 0.995236 0.993341 0.991985 0.991279 0.991279 0.991985 0.993341 0.995236 0.997518 1 
1 0.997518 0.995236 0.993341 0.991985 0.991279 0.991279 0.991985 0.993341 0.995236 0.997518 1 
1 0.997719 0.995622 0.99388 0.992634 0.991985 0.991985 0.992634 0.99388 0.995622 0.997719 1 
1 0.998105 0.996363 0.994916 0.99388 0.993341 0.993341 0.99388 0.994916 0.996363 0.998105 1 
1 0.998644 0.997398 0.996363 0.995622 0.995236 0.995236 0.995622 0.996363 0.997398 0.998644 1 
1 0.999293 0.998644 0.998105 0.997719 0.997518 0.997518 0.997719 0.998105 0.998644 0.999293 1 
1 1 1 1 1 1 1 1 1 1 1 1 

