# vtk DataFile Version 3.0
cell
ASCII
DATASET STRUCTURED_POINTS
DIMENSIONS 12 12 1
ORIGIN 0 0 0
SPACING 1 1 1
POINT_DATA 144
SCALARS cell double
LOOKUP_TABLE default
1 1 1 1 1 1 1 1 1 1 1 1 
1 0.999868 0.999747 0.999647 0.999575 0.999537 0.999537 0.999575 0.999647 0.999747 0.999868 1 
1 0.999747 0.999515 0.999322 0.999184 0.999112 0.999112 0.999184 0.999322 0.999515 0.999747 1 
1 0.999647 0.999322 0.999052 0.998859 0.998758 0.998758 0.998859 0.999052 0.999322 0.999647 1 
1 0.999575 0.999184 0.998859 0.998626 0.998505 0.998505 0.998626 0.998859 0.999184 0.999575 1 
1 0.999537 0.999112 0.998758 0.998505 0.998374 0.998374 0.998505 0.998758 0.999112 0.999537 1 
1 0.999537 0.999112 0.998758 0.998505 0.998374 0.998374 0.998505 0.998758 0.999112 0.999537 1 
1 0.999575 0.999184 0.998859 0.998626 0.998505 0.998505 0.998626 0.998859 0.999184 0.999575 1 
1 0.999647 0.999322 0.999052 0.998859 0.998758 0.998758 0.998859 0.999052 0.999322 0.999647 1 
1 0.999747 0.999515 0.999322 0.999184 0.999112 0.999112 0.999184 0.999322 0.999515 0.999747 1 
1 0.999868 0.999747 0.999647 0.999575 0.999537 0.999537 0.999575 0.999647 0.999747 0.999868 1 
1 1 1 1 1 1 1 1 1 1 1 1 

