# vtk DataFile Version 3.0
cell
ASCII
DATASET STRUCTURED_POINTS
DIMENSIONS 12 12 1
ORIGIN 0 0 0
SPACING 1 1 1
POINT_DATA 144
SCALARS cell double
LOOKUP_TABLE default
1 1 1 1 1 1 1 1 1 1 1 1 
1 0.999912 0.999832 0.999765 0.999717 0.999692 0.999692 0.999717 0.999765 0.999832 0.999912 1 
1 0.999832 0.999677 0.999549 0.999457 0.999409 0.999409 0.999457 0.999549 0.999677 0.999832 1 
1 0.999765 0.999549 0.999369 0.99924 0.999174 0.999174 0.99924 0.999369 0.999549 0.999765 1 
1 0.999717 0.999457 0.99924 0.999086 0.999005 0.999005 0.999086 0.99924 0.999457 0.999717 1 
1 0.999692 0.999409 0.999174 0.999005 0.998918 0.998918 0.999005 0.999174 0.999409 0.999692 1 
1 0.999692 0.999409 0.999174 0.999005 0.998918 0.998918 0.999005 0.999174 0.999409 0.999692 1 
1 0.999717 0.999457 0.99924 0.999086 0.999005 0.999005 0.999086 0.99924 0.999457 0.999717 1 
1 0.999765 0.999549 0.999369 0.99924 0.999174 0.999174 0.99924 0.999369 0.999549 0.999765 1 
1 0.999832 0.999677 0.999549 0.999457 0.999409 0.999409 0.999457 0.999549 0.999677 0.999832 1 
1 0.999912 0.999832 0.999765 0.999717 0.999692 0.999692 0.999717 0.999765 0.999832 0.999912 1 
1 1 1 1 1 1 1 1 1 1 1 1 

