# vtk DataFile Version 3.0
cell
ASCII
DATASET STRUCTURED_POINTS
DIMENSIONS 12 12 1
ORIGIN 0 0 0
SPACING 1 1 1
POINT_DATA 144
SCALARS cell double
LOOKUP_TABLE default
1 1 1 1 1 1 1 1 1 1 1 1 
1 0.982545 0.966508 0.953189 0.943667 0.938706 0.938706 0.943667 0.953189 0.966508 0.982545 1 
1 0.966508 0.935737 0.910183 0.891911 0.882393 0.882393 0.891911 0.910183 0.935737 0.966508 1 
1 0.953189 0.910183 0.874468 0.84893 0.835628 0.835628 0.84893 0.874468 0.910183 0.953189 1 
1 0.943667 0.891911 0.84893 0.818198 0.802189 0.802189 0.818198 0.84893 0.891911 0.943667 1 
1 0.938706 0.882393 0.835628 0.802189 0.784771 0.784771 0.802189 0.835628 0.882393 0.938706 1 
1 0.938706 0.882393 0.835628 0.802189 0.784771 0.784771 0.802189 0.835628 0.882393 0.938706 1 
1 0.943667 0.891911 0.84893 0.818198 0.802189 0.802189 0.818198 0.84893 0.891911 0.943667 1 
1 0.953189 0.910183 0.874468 0.84893 0.835628 0.835628 0.84893 0.874468 0.910183 0.953189 1 
1 0.966508 0.935737 0.910183 0.891911 0.882393 0.882393 0.891911 0.910183 0.935737 0.966508 1 
1 0.982545 0.966508 0.953189 0.943667 0.938706 0.938706 0.943667 0.953189 0.966508 0.982545 1 
1 1 1 1 1 1 1 1 1 1 1 1 

