# vtk DataFile Version 3.0
cell
ASCII
DATASET STRUCTURED_POINTS
DIMENSIONS 12 12 1
ORIGIN 0 0 0
SPACING 1 1 1
POINT_DATA 144
SCALARS cell double
LOOKUP_TABLE default
1 1 1 1 1 1 1 1 1 1 1 1 
1 0.999989 0.999978 0.999969 0.999963 0.99996 0.99996 0.999963 0.999969 0.999978 0.999989 1 
1 0.999978 0.999958 0.999941 0.999929 0.999923 0.999923 0.999929 0.999941 0.999958 0.999978 1 
1 0.999969 0.999941 0.999918 0.999901 0.999892 0.999892 0.999901 0.999918 0.999941 0.999969 1 
1 0.999963 0.999929 0.999901 0.999881 0.99987 0.99987 0.999881 0.999901 0.999929 0.999963 1 
1 0.99996 0.999923 0.999892 0.99987 0.999859 0.999859 0.99987 0.999892 0.999923 0.99996 1 
1 0.99996 0.999923 0.999892 0.99987 0.999859 0.999859 0.99987 0.999892 0.999923 0.99996 1 
1 0.999963 0.999929 0.999901 0.999881 0.99987 0.99987 0.999881 0.999901 0.999929 0.999963 1 
1 0.999969 0.999941 0.999918 0.999901 0.999892 0.999892 0.999901 0.999918 0.999941 0.999969 1 
1 0.999978 0.999958 0.999941 0.999929 0.999923 0.999923 0.999929 0.999941 0.999958 0.999978 1 
1 0.999989 0.999978 0.999969 0.999963 0.99996 0.99996 0.999963 0.999969 0.999978 0.999989 1 
1 1 1 1 1 1 1 1 1 1 1 1 

