# vtk DataFile Version 3.0
cell
ASCII
DATASET STRUCTURED_POINTS
DIMENSIONS 12 12 1
ORIGIN 0 0 0
SPACING 1 1 1
POINT_DATA 144
SCALARS cell double
LOOKUP_TABLE default
1 1 1 1 1 1 1 1 1 1 1 1 
1 0.994858 0.990133 0.986207 0.983398 0.981934 0.981934 0.983398 0.986207 0.990133 0.994858 1 
1 0.990133 0.981064 0.973531 0.968141 0.965332 0.965332 0.968141 0.973531 0.981064 0.990133 1 
1 0.986207 0.973531 0.962999 0.955465 0.951539 0.951539 0.955465 0.962999 0.973531 0.986207 1 
1 0.983398 0.968141 0.955465 0.946397 0.941672 0.941672 0.946397 0.955465 0.968141 0.983398 1 
1 0.981934 0.965332 0.951539 0.941672 0.93653 0.93653 0.941672 0.951539 0.965332 0.981934 1 
1 0.981934 0.965332 0.951539 0.941672 0.93653 0.93653 0.941672 0.951539 0.965332 0.981934 1 
1 0.983398 0.968141 0.955465 0.946397 0.941672 0.941672 0.946397 0.955465 0.968141 0.983398 1 
1 0.986207 0.973531 0.962999 0.955465 0.951539 0.951539 0.955465 0.962999 0.973531 0.986207 1 
1 0.990133 0.981064 0.973531 0.968141 0.965332 0.965332 0.968141 0.973531 0.981064 0.990133 1 
1 0.994858 0.990133 0.986207 0.983398 0.981934 0.981934 0.983398 0.986207 0.990133 0.994858 1 
1 1 1 1 1 1 1 1 1 1 1 1 

