# vtk DataFile Version 3.0
cell
ASCII
DATASET STRUCTURED_POINTS
DIMENSIONS 12 12 1
ORIGIN 0 0 0
SPACING 1 1 1
POINT_DATA 144
SCALARS cell double
LOOKUP_TABLE default
1 1 1 1 1 1 1 1 1 1 1 1 
1 0.999908 0.999823 0.999752 0.999702 0.999676 0.999676 0.999702 0.999752 0.999823 0.999908 1 
1 0.999823 0.99966 0.999525 0.999428 0.999378 0.999378 0.999428 0.999525 0.99966 0.999823 1 
1 0.999752 0.999525 0.999336 0.999201 0.99913 0.99913 0.999201 0.999336 0.999525 0.999752 1 
1 0.999702 0.999428 0.999201 0.999038 0.998953 0.998953 0.999038 0.999201 0.999428 0.999702 1 
1 0.999676 0.999378 0.99913 0.998953 0.998861 0.998861 0.998953 0.99913 0.999378 0.999676 1 
1 0.999676 0.999378 0.99913 0.998953 0.998861 0.998861 0.998953 0.99913 0.999378 0.999676 1 
1 0.999702 0.999428 0.999201 0.999038 0.998953 0.998953 0.999038 0.999201 0.999428 0.999702 1 
1 0.999752 0.999525 0.999336 0.999201 0.99913 0.99913 0.999201 0.999336 0.999525 0.999752 1 
1 0.999823 0.99966 0.999525 0.999428 0.999378 0.999378 0.999428 0.999525 0.99966 0.999823 1 
1 0.999908 0.999823 0.999752 0.999702 0.999676 0.999676 0.999702 0.999752 0.999823 0.999908 1 
1 1 1 1 1 1 1 1 1 1 1 1 

