# vtk DataFile Version 3.0
cell
ASCII
DATASET STRUCTURED_POINTS
DIMENSIONS 12 12 1
ORIGIN 0 0 0
SPACING 1 1 1
POINT_DATA 144
SCALARS cell double
LOOKUP_TABLE default
1 1 1 1 1 1 1 1 1 1 1 1 
1 0.999089 0.998251 0.997555 0.997058 0.996798 0.996798 0.997058 0.997555 0.998251 0.999089 1 
1 0.998251 0.996644 0.995309 0.994354 0.993856 0.993856 0.994354 0.995309 0.996644 0.998251 1 
1 0.997555 0.995309 0.993442 0.992107 0.991411 0.991411 0.992107 0.993442 0.995309 0.997555 1 
1 0.997058 0.994354 0.992107 0.9905 0.989663 0.989663 0.9905 0.992107 0.994354 0.997058 1 
1 0.996798 0.993856 0.991411 0.989663 0.988751 0.988751 0.989663 0.991411 0.993856 0.996798 1 
1 0.996798 0.993856 0.991411 0.989663 0.988751 0.988751 0.989663 0.991411 0.993856 0.996798 1 
1 0.997058 0.994354 0.992107 0.9905 0.989663 0.989663 0.9905 0.992107 0.994354 0.997058 1 
1 0.997555 0.995309 0.993442 0.992107 0.991411 0.991411 0.992107 0.993442 0.995309 0.997555 1 
1 0.998251 0.996644 0.995309 0.994354 0.993856 0.993856 0.994354 0.995309 0.996644 0.998251 1 
1 0.999089 0.998251 0.997555 0.997058 0.996798 0.996798 0.997058 0.997555 0.998251 0.999089 1 
1 1 1 1 1 1 1 1 1 1 1 1 

