# vtk DataFile Version 3.0
cell
ASCII
DATASET STRUCTURED_POINTS
DIMENSIONS 12 12 1
ORIGIN 0 0 0
SPACING 1 1 1
POINT_DATA 144
SCALARS cell double
LOOKUP_TABLE default
1 1 1 1 1 1 1 1 1 1 1 1 
1 0.999893 0.999794 0.999712 0.999653 0.999622 0.999622 0.999653 0.999712 0.999794 0.999893 1 
1 0.999794 0.999604 0.999447 0.999334 0.999275 0.999275 0.999334 0.999447 0.999604 0.999794 1 
1 0.999712 0.999447 0.999227 0.999069 0.998987 0.998987 0.999069 0.999227 0.999447 0.999712 1 
1 0.999653 0.999334 0.999069 0.998879 0.998781 0.998781 0.998879 0.999069 0.999334 0.999653 1 
1 0.999622 0.999275 0.998987 0.998781 0.998673 0.998673 0.998781 0.998987 0.999275 0.999622 1 
1 0.999622 0.999275 0.998987 0.998781 0.998673 0.998673 0.998781 0.998987 0.999275 0.999622 1 
1 0.999653 0.999334 0.999069 0.998879 0.998781 0.998781 0.998879 0.999069 0.999334 0.999653 1 
1 0.999712 0.999447 0.999227 0.999069 0.998987 0.998987 0.999069 0.999227 0.999447 0.999712 1 
1 0.999794 0.999604 0.999447 0.999334 0.999275 0.999275 0.999334 0.999447 0.999604 0.999794 1 
1 0.999893 0.999794 0.999712 0.999653 0.999622 0.999622 0.999653 0.999712 0.999794 0.999893 1 
1 1 1 1 1 1 1 1 1 1 1 1 

