# vtk DataFile Version 3.0
cell
ASCII
DATASET STRUCTURED_POINTS
DIMENSIONS 12 12 1
ORIGIN 0 0 0
SPACING 1 1 1
POINT_DATA 144
SCALARS cell double
LOOKUP_TABLE default
1 1 1 1 1 1 1 1 1 1 1 1 
1 0.999257 0.998573 0.998006 0.9976 0.997388 0.997388 0.9976 0.998006 0.998573 0.999257 1 
1 0.998573 0.997262 0.996173 0.995394 0.994988 0.994988 0.995394 0.996173 0.997262 0.998573 1 
1 0.998006 0.996173 0.99465 0.993561 0.992993 0.992993 0.993561 0.99465 0.996173 0.998006 1 
1 0.9976 0.995394 0.993561 0.99225 0.991567 0.991567 0.99225 0.993561 0.995394 0.9976 1 
1 0.997388 0.994988 0.992993 0.991567 0.990823 0.990823 0.991567 0.992993 0.994988 0.997388 1 
1 0.997388 0.994988 0.992993 0.991567 0.990823 0.990823 0.991567 0.992993 0.994988 0.997388 1 
1 0.9976 0.995394 0.993561 0.99225 0.991567 0.991567 0.99225 0.993561 0.995394 0.9976 1 
1 0.998006 0.996173 0.99465 0.993561 0.992993 0.992993 0.993561 0.99465 0.996173 0.998006 1 
1 0.998573 0.997262 0.996173 0.995394 0.994988 0.994988 0.995394 0.996173 0.997262 0.998573 1 
1 0.999257 0.998573 0.998006 0.9976 0.997388 0.997388 0.9976 0.998006 0.998573 0.999257 1 
1 1 1 1 1 1 1 1 1 1 1 1 

