# vtk DataFile Version 3.0
cell
ASCII
DATASET STRUCTURED_POINTS
DIMENSIONS 12 12 1
ORIGIN 0 0 0
SPACING 1 1 1
POINT_DATA 144
SCALARS cell double
LOOKUP_TABLE default
1 1 1 1 1 1 1 1 1 1 1 1 
1 0.904151 0.822554 0.763468 0.727618 0.711365 0.711365 0.727618 0.763468 0.822554 0.904151 1 
1 0.822554 0.671528 0.56221 0.495919 0.465877 0.465877 0.495919 0.56221 0.671528 0.822554 1 
1 0.763468 0.56221 0.416611 0.328379 0.28842 0.28842 0.328379 0.416611 0.56221 0.763468 1 
1 0.727618 0.495919 0.328379 0.226916 0.180991 0.180991 0.226916 0.328379 0.495919 0.727618 1 
1 0.711365 0.465877 0.28842 0.180991 0.132382 0.132382 0.180991 0.28842 0.465877 0.711365 1 
1 0.711365 0.465877 0.28842 0.180991 0.132382 0.132382 0.180991 0.28842 0.465877 0.711365 1 
1 0.727618 0.495919 0.328379 0.226916 0.180991 0.180991 0.226916 0.328379 0.495919 0.727618 1 
1 0.763468 0.56221 0.416611 0.328379 0.28842 0.28842 0.328379 0.416611 0.56221 0.763468 1 
1 0.822554 0.671528 0.56221 0.495919 0.465877 0.465877 0.495919 0.56221 0.671528 0.822554 1 
1 0.904151 0.822554 0.763468 0.727618 0.711365 0.711365 0.727618 0.763468 0.822554 0.904151 1 
1 1 1 1 1 1 1 1 1 1 1 1 

